n -t * -s 0  -x 3.5127820000000001 -y 7.5698090000000002 -Z 0 -z 1  -v circle -c black
n -t * -s 1  -x 6.380509 -y 6.8120180000000001 -Z 0 -z 1  -v circle -c black
n -t * -s 2  -x 6.1450579999999997 -y 9.5832660000000001 -Z 0 -z 1  -v circle -c black
n -t * -s 3  -x 9.2535629999999998 -y 1.6149770000000001 -Z 0 -z 1  -v circle -c black
n -t * -s 4  -x 6.9946859999999997 -y 4.2873570000000001 -Z 0 -z 1  -v circle -c black
n -t * -s 5  -x 6.9532239999999996 -y 6.1619229999999998 -Z 0 -z 2  -v circle -c black
V -t * -v 1.0a5 -a 0
W -t * -x 10 -y 10
A -t * -n 1 -p 0 -o 0x7fffffff -c 30 -a 1
A -t * -h 1 -m 1073741823 -s 0
n -t 0 -s 3 -S COLOR -c blue -o black -i blue -I black
n -t 0 -s 4 -S COLOR -c blue -o black -i blue -I black
n -t 0 -s 5 -S COLOR -c red -o black -i red -I black
n -t 0.000000 -s 5 -x 6.953224 -y 6.161923 -U -2.639511 -V 1.066551 -T 1.468342
n -t 0 -s 0 -S COLOR -c black -o black -i black -I black
n -t 0 -s 1 -S COLOR -c black -o black -i black -I black
n -t 0 -s 2 -S COLOR -c black -o black -i black -I black
n -t 1 -s 0 -S COLOR -c black -o black -i black -I black
n -t 1 -s 1 -S COLOR -c black -o black -i black -I black
n -t 1 -s 2 -S COLOR -c black -o black -i black -I black
n -t 2.000000 -s 4 -x 6.994686 -y 4.287357 -U -0.751330 -V 0.659927 -T 3.713646
n -t 2 -s 0 -S COLOR -c black -o black -i black -I black
n -t 2 -s 1 -S COLOR -c black -o black -i black -I black
n -t 2 -s 2 -S COLOR -c black -o black -i black -I black
n -t 2 -s 0 -S COLOR -c green -o black -i green -I black
n -t 3.000000 -s 5 -x 3.077520 -y 7.727984 -U 0.930212 -V -0.950890 -T 6.052226
n -t 3.000000 -s 4 -x 6.243356 -y 4.947284 -U -0.751330 -V 0.659927 -T 2.713646
n -t 3 -s 0 -S COLOR -c black -o green -i black -I green
n -t 3 -s 1 -S COLOR -c black -o black -i black -I black
n -t 3 -s 2 -S COLOR -c black -o black -i black -I black
n -t 3 -s 0 -S COLOR -c green -o black -i green -I black
n -t 4.000000 -s 4 -x 5.492027 -y 5.607211 -U -0.785379 -V 0.619015 -T 0.389910
n -t 4 -s 0 -S COLOR -c black -o green -i black -I green
n -t 4 -s 1 -S COLOR -c black -o black -i black -I black
n -t 4 -s 2 -S COLOR -c black -o black -i black -I black
n -t 4 -s 0 -S COLOR -c green -o black -i green -I black
n -t 5 -s 0 -S COLOR -c black -o green -i black -I green
n -t 5 -s 1 -S COLOR -c black -o black -i black -I black
n -t 5 -s 2 -S COLOR -c black -o black -i black -I black
n -t 5 -s 1 -S COLOR -c green -o black -i green -I black
n -t 6 -s 0 -S COLOR -c black -o black -i black -I black
n -t 6 -s 1 -S COLOR -c black -o green -i black -I green
n -t 6 -s 2 -S COLOR -c black -o black -i black -I black
n -t 6 -s 1 -S COLOR -c green -o black -i green -I black
n -t 7.000000 -s 3 -x 9.253563 -y 1.614977 -U -0.728396 -V 0.685156 -T 1.870688
n -t 7.000000 -s 4 -x 5.185800 -y 5.848571 -U 0.642323 -V -0.766434 -T 1.010520
n -t 7 -s 0 -S COLOR -c black -o black -i black -I black
n -t 7 -s 1 -S COLOR -c black -o green -i black -I green
n -t 7 -s 2 -S COLOR -c black -o black -i black -I black
n -t 8.000000 -s 4 -x 5.828124 -y 5.082138 -U 0.669492 -V -0.742819 -T 1.338650
n -t 8 -s 0 -S COLOR -c black -o black -i black -I black
n -t 8 -s 1 -S COLOR -c black -o black -i black -I black
n -t 8 -s 2 -S COLOR -c black -o black -i black -I black
n -t 9.000000 -s 4 -x 6.497616 -y 4.339319 -U 0.682140 -V -0.731222 -T 1.668225
n -t 9 -s 0 -S COLOR -c black -o black -i black -I black
n -t 9 -s 1 -S COLOR -c black -o black -i black -I black
n -t 9 -s 2 -S COLOR -c black -o black -i black -I black
n -t 10.000000 -s 4 -x 7.179756 -y 3.608097 -U 0.682678 -V -0.730719 -T 0.737678
n -t 10 -s 0 -S COLOR -c black -o black -i black -I black
n -t 10 -s 1 -S COLOR -c black -o black -i black -I black
n -t 10 -s 2 -S COLOR -c black -o black -i black -I black
n -t 11.000000 -s 4 -x 7.683353 -y 3.069062 -U 0.000000 -V 0.000000 -T 0.000000
n -t 11 -s 0 -S COLOR -c black -o black -i black -I black
n -t 11 -s 1 -S COLOR -c black -o black -i black -I black
n -t 11 -s 2 -S COLOR -c black -o black -i black -I black
n -t 12.000000 -s 5 -x 8.707370 -y 1.972983 -U -0.913587 -V 1.429749 -T 5.374066
n -t 12.000000 -s 4 -x 7.683353 -y 3.069062 -U 0.000000 -V 0.000000 -T 0.000000
n -t 12 -s 0 -S COLOR -c black -o black -i black -I black
n -t 12 -s 1 -S COLOR -c black -o black -i black -I black
n -t 12 -s 2 -S COLOR -c black -o black -i black -I black
n -t 13 -s 0 -S COLOR -c black -o black -i black -I black
n -t 13 -s 1 -S COLOR -c black -o black -i black -I black
n -t 13 -s 2 -S COLOR -c black -o black -i black -I black
n -t 14.000000 -s 3 -x 7.890961 -y 2.896690 -U -0.462849 -V 0.886437 -T 0.683789
n -t 14.000000 -s 4 -x 7.683353 -y 3.069062 -U -0.414488 -V 0.910055 -T 0.437708
n -t 14 -s 0 -S COLOR -c black -o black -i black -I black
n -t 14 -s 1 -S COLOR -c black -o black -i black -I black
n -t 14 -s 2 -S COLOR -c black -o black -i black -I black
n -t 15.000000 -s 3 -x 7.574469 -y 3.502826 -U -0.503453 -V 0.864023 -T 1.693671
n -t 15.000000 -s 4 -x 7.501928 -y 3.467400 -U -0.481476 -V 0.876459 -T 1.688775
n -t 15 -s 0 -S COLOR -c black -o black -i black -I black
n -t 15 -s 1 -S COLOR -c black -o black -i black -I black
n -t 15 -s 2 -S COLOR -c black -o black -i black -I black
n -t 16.000000 -s 3 -x 7.071017 -y 4.366849 -U -0.518822 -V 0.854883 -T 2.389577
n -t 16.000000 -s 4 -x 7.020451 -y 4.343859 -U -0.506628 -V 0.862165 -T 2.383388
n -t 16 -s 0 -S COLOR -c black -o black -i black -I black
n -t 16 -s 1 -S COLOR -c black -o black -i black -I black
n -t 16 -s 2 -S COLOR -c black -o black -i black -I black
n -t 17.000000 -s 3 -x 6.552195 -y 5.221731 -U -0.526115 -V 0.850414 -T 3.086001
n -t 17.000000 -s 4 -x 6.513824 -y 5.206024 -U -0.518499 -V 0.855078 -T 3.079354
n -t 17 -s 0 -S COLOR -c black -o black -i black -I black
n -t 17 -s 1 -S COLOR -c black -o black -i black -I black
n -t 17 -s 2 -S COLOR -c black -o black -i black -I black
n -t 18.000000 -s 3 -x 6.026080 -y 6.072145 -U -0.527976 -V 0.849259 -T 2.720624
n -t 18.000000 -s 4 -x 5.995325 -y 6.061102 -U -0.521522 -V 0.853238 -T 2.713886
n -t 18 -s 0 -S COLOR -c black -o black -i black -I black
n -t 18 -s 1 -S COLOR -c black -o black -i black -I black
n -t 18 -s 2 -S COLOR -c black -o black -i black -I black
n -t 19.000000 -s 3 -x 5.498104 -y 6.921404 -U -0.527976 -V 0.849259 -T 1.720624
n -t 19.000000 -s 4 -x 5.473803 -y 6.914340 -U -0.521522 -V 0.853238 -T 1.713886
n -t 19 -s 0 -S COLOR -c black -o black -i black -I black
n -t 19 -s 1 -S COLOR -c black -o black -i black -I black
n -t 19 -s 2 -S COLOR -c black -o black -i black -I black
n -t 20.000000 -s 5 -x 3.797691 -y 9.656549 -U 1.947613 -V -1.742541 -T 2.780216
n -t 20.000000 -s 3 -x 4.970128 -y 7.770663 -U -0.527976 -V 0.849259 -T 0.720624
n -t 20.000000 -s 4 -x 4.952281 -y 7.767578 -U -0.521522 -V 0.853238 -T 0.713886
n -t 20 -s 0 -S COLOR -c black -o black -i black -I black
n -t 20 -s 1 -S COLOR -c black -o black -i black -I black
n -t 20 -s 2 -S COLOR -c black -o black -i black -I black
n -t 21 -s 0 -S COLOR -c black -o black -i black -I black
n -t 21 -s 1 -S COLOR -c black -o black -i black -I black
n -t 21 -s 2 -S COLOR -c black -o black -i black -I black
n -t 22.000000 -s 3 -x 4.589655 -y 8.382660 -U 0.814406 -V -0.580296 -T 2.310460
n -t 22.000000 -s 4 -x 4.579974 -y 8.376692 -U 0.815997 -V -0.578056 -T 2.314896
n -t 22 -s 0 -S COLOR -c black -o black -i black -I black
n -t 22 -s 1 -S COLOR -c black -o black -i black -I black
n -t 22 -s 2 -S COLOR -c black -o black -i black -I black
n -t 23.000000 -s 3 -x 5.404061 -y 7.802365 -U 0.786506 -V -0.617583 -T 3.342195
n -t 23.000000 -s 4 -x 5.395971 -y 7.798636 -U 0.787515 -V -0.616295 -T 3.346262
n -t 23 -s 0 -S COLOR -c black -o black -i black -I black
n -t 23 -s 1 -S COLOR -c black -o black -i black -I black
n -t 23 -s 2 -S COLOR -c black -o black -i black -I black
n -t 24.000000 -s 5 -x 9.212476 -y 4.811908 -U -0.787217 -V -0.062367 -T 1.867612
n -t 24.000000 -s 3 -x 6.190567 -y 7.184782 -U 0.786506 -V -0.617583 -T 2.342195
n -t 24.000000 -s 4 -x 6.183486 -y 7.182341 -U 0.787515 -V -0.616295 -T 2.346262
n -t 24 -s 0 -S COLOR -c black -o black -i black -I black
n -t 24 -s 1 -S COLOR -c black -o black -i black -I black
n -t 24 -s 2 -S COLOR -c black -o black -i black -I black
n -t 25.000000 -s 3 -x 6.977073 -y 6.567199 -U 0.623135 -V -0.782114 -T 0.824032
n -t 25.000000 -s 4 -x 6.971001 -y 6.566045 -U 0.624971 -V -0.780648 -T 0.826920
n -t 25 -s 0 -S COLOR -c black -o black -i black -I black
n -t 25 -s 1 -S COLOR -c black -o black -i black -I black
n -t 25 -s 2 -S COLOR -c black -o black -i black -I black
n -t 26 -s 0 -S COLOR -c black -o black -i black -I black
n -t 26 -s 1 -S COLOR -c black -o black -i black -I black
n -t 26 -s 2 -S COLOR -c black -o black -i black -I black
n -t 27.000000 -s 5 -x 7.742260 -y 4.695430 -U -1.045058 -V 0.795031 -T 3.043900
n -t 27 -s 0 -S COLOR -c black -o black -i black -I black
n -t 27 -s 1 -S COLOR -c black -o black -i black -I black
n -t 27 -s 2 -S COLOR -c black -o black -i black -I black
n -t 28 -s 0 -S COLOR -c black -o black -i black -I black
n -t 28 -s 1 -S COLOR -c black -o black -i black -I black
n -t 28 -s 2 -S COLOR -c black -o black -i black -I black
n -t 29.000000 -s 3 -x 7.490556 -y 5.922712 -U -0.981080 -V 0.193600 -T 0.373865
n -t 29.000000 -s 4 -x 7.487802 -y 5.920512 -U -0.980801 -V 0.195011 -T 0.371591
n -t 29 -s 0 -S COLOR -c black -o black -i black -I black
n -t 29 -s 1 -S COLOR -c black -o black -i black -I black
n -t 29 -s 2 -S COLOR -c black -o black -i black -I black
n -t 30.000000 -s 3 -x 7.123765 -y 5.995092 -U -0.918237 -V 0.396031 -T 1.240773
n -t 30.000000 -s 4 -x 7.123346 -y 5.992977 -U -0.917932 -V 0.396738 -T 1.241226
n -t 30 -s 0 -S COLOR -c black -o black -i black -I black
n -t 30 -s 1 -S COLOR -c black -o black -i black -I black
n -t 30 -s 2 -S COLOR -c black -o black -i black -I black
n -t 31.000000 -s 3 -x 6.205528 -y 6.391124 -U -0.915150 -V 0.403112 -T 0.296775
n -t 31.000000 -s 4 -x 6.205414 -y 6.389714 -U -0.914851 -V 0.403793 -T 0.297239
n -t 31 -s 0 -S COLOR -c black -o black -i black -I black
n -t 31 -s 1 -S COLOR -c black -o black -i black -I black
n -t 31 -s 2 -S COLOR -c black -o black -i black -I black
n -t 32.000000 -s 5 -x 4.561208 -y 7.115426 -U 1.191187 -V 0.651152 -T 3.462845
n -t 32.000000 -s 3 -x 5.933934 -y 6.510757 -U 0.000000 -V 0.000000 -T 0.000000
n -t 32 -s 0 -S COLOR -c black -o black -i black -I black
n -t 32 -s 1 -S COLOR -c black -o black -i black -I black
n -t 32 -s 2 -S COLOR -c black -o black -i black -I black
n -t 33 -s 0 -S COLOR -c black -o black -i black -I black
n -t 33 -s 1 -S COLOR -c black -o black -i black -I black
n -t 33 -s 2 -S COLOR -c black -o black -i black -I black
n -t 34.000000 -s 3 -x 5.933934 -y 6.510757 -U 0.467915 -V 0.883774 -T 0.657762
n -t 34.000000 -s 4 -x 5.933484 -y 6.509737 -U 0.467882 -V 0.883791 -T 0.658874
n -t 34 -s 0 -S COLOR -c black -o black -i black -I black
n -t 34 -s 1 -S COLOR -c black -o black -i black -I black
n -t 34 -s 2 -S COLOR -c black -o black -i black -I black
n -t 35.000000 -s 3 -x 6.241710 -y 7.092070 -U 0.691641 -V 0.722241 -T 1.237053
n -t 35.000000 -s 4 -x 6.241759 -y 7.092044 -U 0.691627 -V 0.722255 -T 1.237038
n -t 35 -s 0 -S COLOR -c black -o black -i black -I black
n -t 35 -s 1 -S COLOR -c black -o black -i black -I black
n -t 35 -s 2 -S COLOR -c black -o black -i black -I black
n -t 36.000000 -s 3 -x 6.933351 -y 7.814311 -U 0.747843 -V 0.663875 -T 0.843744
n -t 36.000000 -s 4 -x 6.933386 -y 7.814299 -U 0.747834 -V 0.663886 -T 0.843726
n -t 36 -s 0 -S COLOR -c black -o black -i black -I black
n -t 36 -s 1 -S COLOR -c black -o black -i black -I black
n -t 36 -s 2 -S COLOR -c black -o black -i black -I black
n -t 37.000000 -s 5 -x 8.686104 -y 9.370265 -U 0.478214 -V -2.653779 -T 1.779820
n -t 37.000000 -s 3 -x 7.564339 -y 8.374452 -U 1.000000 -V 0.000000 -T 0.000000
n -t 37 -s 0 -S COLOR -c black -o black -i black -I black
n -t 37 -s 1 -S COLOR -c black -o black -i black -I black
n -t 37 -s 2 -S COLOR -c black -o black -i black -I black
n -t 38.000000 -s 3 -x 7.564339 -y 8.374452 -U 0.694411 -V -0.719578 -T 0.804080
n -t 38.000000 -s 4 -x 7.564353 -y 8.374436 -U 0.694412 -V -0.719578 -T 0.804059
n -t 38 -s 0 -S COLOR -c black -o black -i black -I black
n -t 38 -s 1 -S COLOR -c black -o black -i black -I black
n -t 38 -s 2 -S COLOR -c black -o black -i black -I black
n -t 39.000000 -s 3 -x 8.122701 -y 7.795854 -U 0.409777 -V -0.912186 -T 1.951969
n -t 39.000000 -s 4 -x 8.122701 -y 7.795853 -U 0.409777 -V -0.912186 -T 1.951969
n -t 39 -s 0 -S COLOR -c black -o black -i black -I black
n -t 39 -s 1 -S COLOR -c black -o black -i black -I black
n -t 39 -s 2 -S COLOR -c black -o black -i black -I black
n -t 40.000000 -s 5 -x 9.537239 -y 4.647017 -U -0.191249 -V -1.304246 -T 3.009556
n -t 40.000000 -s 3 -x 8.532478 -y 6.883668 -U 0.409777 -V -0.912186 -T 0.951969
n -t 40.000000 -s 4 -x 8.532478 -y 6.883668 -U 0.409777 -V -0.912186 -T 0.951969
n -t 40 -s 0 -S COLOR -c black -o black -i black -I black
n -t 40 -s 1 -S COLOR -c black -o black -i black -I black
n -t 40 -s 2 -S COLOR -c black -o black -i black -I black
n -t 41.000000 -s 3 -x 8.922573 -y 6.015296 -U 0.156482 -V -0.987681 -T 1.205858
n -t 41.000000 -s 4 -x 8.922573 -y 6.015295 -U 0.156482 -V -0.987681 -T 1.205858
n -t 41 -s 0 -S COLOR -c black -o black -i black -I black
n -t 41 -s 1 -S COLOR -c black -o black -i black -I black
n -t 41 -s 2 -S COLOR -c black -o black -i black -I black
n -t 42.000000 -s 3 -x 9.079055 -y 5.027615 -U 0.025313 -V -0.999680 -T 1.490047
n -t 42.000000 -s 4 -x 9.079055 -y 5.027615 -U 0.025313 -V -0.999680 -T 1.490047
n -t 42 -s 0 -S COLOR -c black -o black -i black -I black
n -t 42 -s 1 -S COLOR -c black -o black -i black -I black
n -t 42 -s 2 -S COLOR -c black -o black -i black -I black
n -t 43.000000 -s 3 -x 9.104368 -y 4.027935 -U -0.042733 -V -0.999087 -T 1.796666
n -t 43.000000 -s 4 -x 9.104368 -y 4.027935 -U -0.042733 -V -0.999087 -T 1.796666
n -t 43 -s 0 -S COLOR -c black -o black -i black -I black
n -t 43 -s 1 -S COLOR -c black -o black -i black -I black
n -t 43 -s 2 -S COLOR -c black -o black -i black -I black
n -t 44.000000 -s 3 -x 9.061635 -y 3.028849 -U -0.043292 -V -0.999062 -T 0.809197
n -t 44.000000 -s 4 -x 9.061635 -y 3.028848 -U -0.043292 -V -0.999062 -T 0.809197
n -t 44 -s 0 -S COLOR -c black -o black -i black -I black
n -t 44 -s 1 -S COLOR -c black -o black -i black -I black
n -t 44 -s 2 -S COLOR -c black -o black -i black -I black
n -t 45.000000 -s 5 -x 8.961665 -y 0.721816 -U 0.382243 -V 2.751460 -T 2.373436
n -t 45.000000 -s 3 -x 9.026603 -y 2.220410 -U 0.000000 -V 0.000000 -T 0.000000
n -t 45 -s 0 -S COLOR -c black -o black -i black -I black
n -t 45 -s 1 -S COLOR -c black -o black -i black -I black
n -t 45 -s 2 -S COLOR -c black -o black -i black -I black
n -t 46 -s 0 -S COLOR -c black -o black -i black -I black
n -t 46 -s 1 -S COLOR -c black -o black -i black -I black
n -t 46 -s 2 -S COLOR -c black -o black -i black -I black
n -t 47.000000 -s 3 -x 9.026603 -y 2.220410 -U 0.172092 -V 0.985081 -T 2.564971
n -t 47.000000 -s 4 -x 9.026603 -y 2.220410 -U 0.172092 -V 0.985081 -T 2.564971
n -t 47 -s 0 -S COLOR -c black -o black -i black -I black
n -t 47 -s 1 -S COLOR -c black -o black -i black -I black
n -t 47 -s 2 -S COLOR -c black -o black -i black -I black
n -t 48.000000 -s 3 -x 9.198695 -y 3.205491 -U 0.163389 -V 0.986562 -T 2.601860
n -t 48.000000 -s 4 -x 9.198695 -y 3.205491 -U 0.163389 -V 0.986562 -T 2.601860
n -t 48 -s 0 -S COLOR -c black -o black -i black -I black
n -t 48 -s 1 -S COLOR -c black -o black -i black -I black
n -t 48 -s 2 -S COLOR -c black -o black -i black -I black
n -t 49.000000 -s 5 -x 9.868894 -y 7.252229 -U -1.919041 -V -1.245505 -T 3.980459
n -t 49.000000 -s 3 -x 9.362084 -y 4.192053 -U 0.163389 -V 0.986562 -T 1.601860
n -t 49.000000 -s 4 -x 9.362084 -y 4.192053 -U 0.163389 -V 0.986562 -T 1.601860
n -t 49 -s 0 -S COLOR -c black -o black -i black -I black
n -t 49 -s 1 -S COLOR -c black -o black -i black -I black
n -t 49 -s 2 -S COLOR -c black -o black -i black -I black
n -t 50.000000 -s 3 -x 9.525473 -y 5.178614 -U -0.885188 -V 0.465234 -T 0.279984
n -t 50.000000 -s 4 -x 9.525473 -y 5.178614 -U -0.885188 -V 0.465234 -T 0.279984
n -t 50 -s 0 -S COLOR -c black -o black -i black -I black
n -t 50 -s 1 -S COLOR -c black -o black -i black -I black
n -t 50 -s 2 -S COLOR -c black -o black -i black -I black
n -t 51.000000 -s 3 -x 9.277635 -y 5.308872 -U -0.986071 -V -0.166324 -T 1.792686
n -t 51.000000 -s 4 -x 9.277635 -y 5.308872 -U -0.986071 -V -0.166324 -T 1.792686
n -t 51 -s 0 -S COLOR -c black -o black -i black -I black
n -t 51 -s 1 -S COLOR -c black -o black -i black -I black
n -t 51 -s 2 -S COLOR -c black -o black -i black -I black
n -t 52.000000 -s 3 -x 8.291564 -y 5.142548 -U -0.931902 -V -0.362710 -T 2.985226
n -t 52.000000 -s 4 -x 8.291564 -y 5.142548 -U -0.931902 -V -0.362710 -T 2.985226
n -t 52 -s 0 -S COLOR -c black -o black -i black -I black
n -t 52 -s 1 -S COLOR -c black -o black -i black -I black
n -t 52 -s 2 -S COLOR -c black -o black -i black -I black
n -t 53.000000 -s 3 -x 7.359661 -y 4.779838 -U -0.899931 -V -0.436031 -T 4.199801
n -t 53.000000 -s 4 -x 7.359661 -y 4.779838 -U -0.899931 -V -0.436031 -T 4.199801
n -t 53 -s 0 -S COLOR -c black -o black -i black -I black
n -t 53 -s 1 -S COLOR -c black -o black -i black -I black
n -t 53 -s 2 -S COLOR -c black -o black -i black -I black
n -t 54.000000 -s 5 -x 2.230231 -y 2.294546 -U 1.628434 -V 1.609569 -T 4.414080
n -t 54.000000 -s 3 -x 6.459730 -y 4.343807 -U -0.899931 -V -0.436031 -T 3.199801
n -t 54.000000 -s 4 -x 6.459730 -y 4.343807 -U -0.899931 -V -0.436031 -T 3.199801
n -t 54 -s 0 -S COLOR -c black -o black -i black -I black
n -t 54 -s 1 -S COLOR -c black -o black -i black -I black
n -t 54 -s 2 -S COLOR -c black -o black -i black -I black
n -t 55.000000 -s 3 -x 5.559799 -y 3.907776 -U -0.999998 -V -0.002152 -T 0.201137
n -t 55.000000 -s 4 -x 5.559799 -y 3.907775 -U -0.999998 -V -0.002152 -T 0.201137
n -t 55 -s 0 -S COLOR -c black -o black -i black -I black
n -t 55 -s 1 -S COLOR -c black -o black -i black -I black
n -t 55 -s 2 -S COLOR -c black -o black -i black -I black
n -t 56.000000 -s 3 -x 5.358662 -y 3.907343 -U 0.079702 -V 0.996819 -T 0.111468
n -t 56.000000 -s 4 -x 5.358662 -y 3.907343 -U 0.079702 -V 0.996819 -T 0.111468
n -t 56 -s 0 -S COLOR -c black -o black -i black -I black
n -t 56 -s 1 -S COLOR -c black -o black -i black -I black
n -t 56 -s 2 -S COLOR -c black -o black -i black -I black
n -t 57.000000 -s 3 -x 5.367546 -y 4.018456 -U 0.490589 -V 0.871391 -T 2.063036
n -t 57.000000 -s 4 -x 5.367546 -y 4.018456 -U 0.490589 -V 0.871391 -T 2.063036
n -t 57 -s 0 -S COLOR -c black -o black -i black -I black
n -t 57 -s 1 -S COLOR -c black -o black -i black -I black
n -t 57 -s 2 -S COLOR -c black -o black -i black -I black
n -t 58.000000 -s 3 -x 5.858135 -y 4.889847 -U 0.600479 -V 0.799640 -T 3.305881
n -t 58.000000 -s 4 -x 5.858135 -y 4.889847 -U 0.600479 -V 0.799640 -T 3.305881
n -t 58 -s 0 -S COLOR -c black -o black -i black -I black
n -t 58 -s 1 -S COLOR -c black -o black -i black -I black
n -t 58 -s 2 -S COLOR -c black -o black -i black -I black
n -t 59.000000 -s 3 -x 6.458615 -y 5.689488 -U 0.623640 -V 0.781712 -T 3.245774
n -t 59.000000 -s 4 -x 6.458615 -y 5.689488 -U 0.623640 -V 0.781712 -T 3.245774
n -t 59 -s 0 -S COLOR -c black -o black -i black -I black
n -t 59 -s 1 -S COLOR -c black -o black -i black -I black
n -t 59 -s 2 -S COLOR -c black -o black -i black -I black
n -t 60.000000 -s 5 -x 9.418270 -y 9.399314 -U -2.591325 -V -0.966455 -T 2.530691
n -t 60.000000 -s 3 -x 7.082255 -y 6.471199 -U 0.623640 -V 0.781712 -T 2.245774
n -t 60.000000 -s 4 -x 7.082255 -y 6.471199 -U 0.623640 -V 0.781712 -T 2.245774
n -t 60 -s 0 -S COLOR -c black -o black -i black -I black
n -t 60 -s 1 -S COLOR -c black -o black -i black -I black
n -t 60 -s 2 -S COLOR -c black -o black -i black -I black
n -t 61 -s 0 -S COLOR -c black -o black -i black -I black
n -t 61 -s 1 -S COLOR -c black -o black -i black -I black
n -t 61 -s 2 -S COLOR -c black -o black -i black -I black
n -t 62.000000 -s 3 -x 8.329535 -y 8.034622 -U -0.990505 -V -0.137478 -T 2.633161
n -t 62.000000 -s 4 -x 8.329535 -y 8.034622 -U -0.990505 -V -0.137478 -T 2.633161
n -t 62 -s 0 -S COLOR -c black -o black -i black -I black
n -t 62 -s 1 -S COLOR -c black -o black -i black -I black
n -t 62 -s 2 -S COLOR -c black -o black -i black -I black
n -t 63.000000 -s 3 -x 7.339030 -y 7.897144 -U -0.978516 -V -0.206171 -T 3.076936
n -t 63.000000 -s 4 -x 7.339030 -y 7.897144 -U -0.978516 -V -0.206171 -T 3.076936
n -t 63 -s 0 -S COLOR -c black -o black -i black -I black
n -t 63 -s 1 -S COLOR -c black -o black -i black -I black
n -t 63 -s 2 -S COLOR -c black -o black -i black -I black
n -t 64.000000 -s 5 -x 2.860425 -y 6.953515 -U -0.994466 -V -2.382240 -T 2.389215
n -t 64.000000 -s 3 -x 6.360514 -y 7.690974 -U -0.978516 -V -0.206171 -T 2.076936
n -t 64.000000 -s 4 -x 6.360514 -y 7.690974 -U -0.978516 -V -0.206171 -T 2.076936
n -t 64 -s 0 -S COLOR -c black -o black -i black -I black
n -t 64 -s 1 -S COLOR -c black -o black -i black -I black
n -t 64 -s 2 -S COLOR -c black -o black -i black -I black
n -t 65.000000 -s 3 -x 5.381998 -y 7.484803 -U -0.769996 -V -0.638049 -T 3.066309
n -t 65.000000 -s 4 -x 5.381998 -y 7.484803 -U -0.769996 -V -0.638049 -T 3.066309
n -t 65 -s 0 -S COLOR -c black -o black -i black -I black
n -t 65 -s 1 -S COLOR -c black -o black -i black -I black
n -t 65 -s 2 -S COLOR -c black -o black -i black -I black
n -t 66.000000 -s 3 -x 4.612002 -y 6.846754 -U -0.626157 -V -0.779697 -T 4.473756
n -t 66.000000 -s 4 -x 4.612002 -y 6.846754 -U -0.626157 -V -0.779697 -T 4.473756
n -t 66 -s 0 -S COLOR -c black -o black -i black -I black
n -t 66 -s 1 -S COLOR -c black -o black -i black -I black
n -t 66 -s 2 -S COLOR -c black -o black -i black -I black
n -t 67.000000 -s 3 -x 3.985845 -y 6.067058 -U -0.588909 -V -0.808199 -T 4.445594
n -t 67.000000 -s 4 -x 3.985845 -y 6.067058 -U -0.588909 -V -0.808199 -T 4.445594
n -t 67 -s 0 -S COLOR -c black -o black -i black -I black
n -t 67 -s 1 -S COLOR -c black -o black -i black -I black
n -t 67 -s 2 -S COLOR -c black -o black -i black -I black
n -t 68.000000 -s 5 -x 0.484431 -y 1.261832 -U 1.608672 -V 0.809572 -T 1.935065
n -t 68.000000 -s 3 -x 3.396936 -y 5.258858 -U -0.588909 -V -0.808199 -T 3.445594
n -t 68.000000 -s 4 -x 3.396936 -y 5.258858 -U -0.588909 -V -0.808199 -T 3.445594
n -t 68 -s 0 -S COLOR -c black -o black -i black -I black
n -t 68 -s 1 -S COLOR -c black -o black -i black -I black
n -t 68 -s 2 -S COLOR -c black -o black -i black -I black
n -t 69.000000 -s 3 -x 2.808027 -y 4.450659 -U -0.287771 -V -0.957699 -T 0.984345
n -t 69.000000 -s 4 -x 2.808027 -y 4.450659 -U -0.287771 -V -0.957699 -T 0.984345
n -t 69 -s 0 -S COLOR -c black -o black -i black -I black
n -t 69 -s 1 -S COLOR -c black -o black -i black -I black
n -t 69 -s 2 -S COLOR -c black -o black -i black -I black
n -t 70 -s 0 -S COLOR -c black -o black -i black -I black
n -t 70 -s 1 -S COLOR -c black -o black -i black -I black
n -t 70 -s 2 -S COLOR -c black -o black -i black -I black
n -t 71.000000 -s 5 -x 3.597317 -y 2.828406 -U -1.054572 -V 0.292071 -T 2.239139
n -t 71 -s 0 -S COLOR -c black -o black -i black -I black
n -t 71 -s 1 -S COLOR -c black -o black -i black -I black
n -t 71 -s 2 -S COLOR -c black -o black -i black -I black
n -t 72 -s 0 -S COLOR -c black -o black -i black -I black
n -t 72 -s 1 -S COLOR -c black -o black -i black -I black
n -t 72 -s 2 -S COLOR -c black -o black -i black -I black
n -t 73 -s 0 -S COLOR -c black -o black -i black -I black
n -t 73 -s 1 -S COLOR -c black -o black -i black -I black
n -t 73 -s 2 -S COLOR -c black -o black -i black -I black
n -t 74 -s 0 -S COLOR -c black -o black -i black -I black
n -t 74 -s 1 -S COLOR -c black -o black -i black -I black
n -t 74 -s 2 -S COLOR -c black -o black -i black -I black
n -t 75.000000 -s 5 -x 1.235985 -y 3.482394 -U 2.205631 -V 1.455058 -T 1.782857
n -t 75 -s 0 -S COLOR -c black -o black -i black -I black
n -t 75 -s 1 -S COLOR -c black -o black -i black -I black
n -t 75 -s 2 -S COLOR -c black -o black -i black -I black
n -t 76.000000 -s 3 -x 2.524761 -y 3.507953 -U 0.539879 -V 0.841743 -T 0.198262
n -t 76.000000 -s 4 -x 2.524761 -y 3.507953 -U 0.539879 -V 0.841743 -T 0.198262
n -t 76 -s 0 -S COLOR -c black -o black -i black -I black
n -t 76 -s 1 -S COLOR -c black -o black -i black -I black
n -t 76 -s 2 -S COLOR -c black -o black -i black -I black
n -t 77.000000 -s 3 -x 2.631798 -y 3.674838 -U 0.726138 -V 0.687549 -T 1.993156
n -t 77.000000 -s 4 -x 2.631798 -y 3.674838 -U 0.726138 -V 0.687549 -T 1.993156
n -t 77 -s 0 -S COLOR -c black -o black -i black -I black
n -t 77 -s 1 -S COLOR -c black -o black -i black -I black
n -t 77 -s 2 -S COLOR -c black -o black -i black -I black
n -t 78.000000 -s 5 -x 5.168310 -y 6.076555 -U -0.329561 -V -1.030024 -T 5.370042
n -t 78.000000 -s 3 -x 3.357936 -y 4.362387 -U 0.726138 -V 0.687549 -T 0.993156
n -t 78.000000 -s 4 -x 3.357936 -y 4.362387 -U 0.726138 -V 0.687549 -T 0.993156
n -t 78 -s 0 -S COLOR -c black -o black -i black -I black
n -t 78 -s 1 -S COLOR -c black -o black -i black -I black
n -t 78 -s 2 -S COLOR -c black -o black -i black -I black
n -t 79 -s 0 -S COLOR -c black -o black -i black -I black
n -t 79 -s 1 -S COLOR -c black -o black -i black -I black
n -t 79 -s 2 -S COLOR -c black -o black -i black -I black
n -t 80 -s 0 -S COLOR -c black -o black -i black -I black
n -t 80 -s 1 -S COLOR -c black -o black -i black -I black
n -t 80 -s 2 -S COLOR -c black -o black -i black -I black
n -t 81.000000 -s 3 -x 4.079104 -y 5.045231 -U 0.048769 -V -0.998810 -T 0.561201
n -t 81.000000 -s 4 -x 4.079104 -y 5.045231 -U 0.048769 -V -0.998810 -T 0.561201
n -t 81 -s 0 -S COLOR -c black -o black -i black -I black
n -t 81 -s 1 -S COLOR -c black -o black -i black -I black
n -t 81 -s 2 -S COLOR -c black -o black -i black -I black
n -t 82.000000 -s 3 -x 4.106473 -y 4.484698 -U -0.100900 -V -0.994897 -T 1.041208
n -t 82.000000 -s 4 -x 4.106473 -y 4.484698 -U -0.100900 -V -0.994897 -T 1.041208
n -t 82 -s 0 -S COLOR -c black -o black -i black -I black
n -t 82 -s 1 -S COLOR -c black -o black -i black -I black
n -t 82 -s 2 -S COLOR -c black -o black -i black -I black
n -t 83.000000 -s 3 -x 4.005573 -y 3.489802 -U -0.185932 -V -0.982563 -T 1.108858
n -t 83.000000 -s 4 -x 4.005573 -y 3.489802 -U -0.185932 -V -0.982563 -T 1.108858
n -t 83 -s 0 -S COLOR -c black -o black -i black -I black
n -t 83 -s 1 -S COLOR -c black -o black -i black -I black
n -t 83 -s 2 -S COLOR -c black -o black -i black -I black
n -t 84.000000 -s 3 -x 3.819641 -y 2.507239 -U -0.209848 -V -0.977734 -T 0.506636
n -t 84.000000 -s 4 -x 3.819641 -y 2.507239 -U -0.209848 -V -0.977734 -T 0.506636
n -t 84 -s 0 -S COLOR -c black -o black -i black -I black
n -t 84 -s 1 -S COLOR -c black -o black -i black -I black
n -t 84 -s 2 -S COLOR -c black -o black -i black -I black
n -t 85.000000 -s 3 -x 3.713324 -y 2.011884 -U 0.000000 -V 0.000000 -T 0.000000
n -t 85.000000 -s 4 -x 3.713324 -y 2.011884 -U 0.000000 -V 0.000000 -T 0.000000
n -t 85 -s 0 -S COLOR -c black -o black -i black -I black
n -t 85 -s 1 -S COLOR -c black -o black -i black -I black
n -t 85 -s 2 -S COLOR -c black -o black -i black -I black
n -t 86.000000 -s 5 -x 3.398552 -y 0.545283 -U 0.524633 -V 1.838523 -T 5.032352
n -t 86.000000 -s 3 -x 3.713324 -y 2.011884 -U 0.000000 -V 0.000000 -T 0.000000
n -t 86.000000 -s 4 -x 3.713324 -y 2.011884 -U 0.000000 -V 0.000000 -T 0.000000
n -t 86 -s 0 -S COLOR -c black -o black -i black -I black
n -t 86 -s 1 -S COLOR -c black -o black -i black -I black
n -t 86 -s 2 -S COLOR -c black -o black -i black -I black
n -t 87 -s 0 -S COLOR -c black -o black -i black -I black
n -t 87 -s 1 -S COLOR -c black -o black -i black -I black
n -t 87 -s 2 -S COLOR -c black -o black -i black -I black
n -t 88.000000 -s 3 -x 3.713324 -y 2.011884 -U 0.315331 -V 0.948982 -T 0.829281
n -t 88.000000 -s 4 -x 3.713324 -y 2.011884 -U 0.315331 -V 0.948982 -T 0.829281
n -t 88 -s 0 -S COLOR -c black -o black -i black -I black
n -t 88 -s 1 -S COLOR -c black -o black -i black -I black
n -t 88 -s 2 -S COLOR -c black -o black -i black -I black
n -t 89.000000 -s 3 -x 3.974822 -y 2.798856 -U 0.292462 -V 0.956277 -T 1.911141
n -t 89.000000 -s 4 -x 3.974822 -y 2.798856 -U 0.292462 -V 0.956277 -T 1.911141
n -t 89 -s 0 -S COLOR -c black -o black -i black -I black
n -t 89 -s 1 -S COLOR -c black -o black -i black -I black
n -t 89 -s 2 -S COLOR -c black -o black -i black -I black
n -t 90.000000 -s 3 -x 4.267284 -y 3.755134 -U 0.284487 -V 0.958680 -T 2.822864
n -t 90.000000 -s 4 -x 4.267284 -y 3.755134 -U 0.284487 -V 0.958680 -T 2.822864
n -t 90 -s 0 -S COLOR -c black -o black -i black -I black
n -t 90 -s 1 -S COLOR -c black -o black -i black -I black
n -t 90 -s 2 -S COLOR -c black -o black -i black -I black
n -t 91.000000 -s 3 -x 4.551771 -y 4.713813 -U 0.280808 -V 0.959764 -T 3.734709
n -t 91.000000 -s 4 -x 4.551771 -y 4.713813 -U 0.280808 -V 0.959764 -T 3.734709
n -t 91 -s 0 -S COLOR -c black -o black -i black -I black
n -t 91 -s 1 -S COLOR -c black -o black -i black -I black
n -t 91 -s 2 -S COLOR -c black -o black -i black -I black
n -t 92.000000 -s 3 -x 4.832579 -y 5.673578 -U 0.280715 -V 0.959791 -T 2.796562
n -t 92.000000 -s 4 -x 4.832579 -y 5.673578 -U 0.280715 -V 0.959791 -T 2.796562
n -t 92 -s 0 -S COLOR -c black -o black -i black -I black
n -t 92 -s 1 -S COLOR -c black -o black -i black -I black
n -t 92 -s 2 -S COLOR -c black -o black -i black -I black
n -t 93.000000 -s 3 -x 5.113294 -y 6.633369 -U 0.280715 -V 0.959791 -T 1.796562
n -t 93.000000 -s 4 -x 5.113294 -y 6.633369 -U 0.280715 -V 0.959791 -T 1.796562
n -t 93 -s 0 -S COLOR -c black -o black -i black -I black
n -t 93 -s 1 -S COLOR -c black -o black -i black -I black
n -t 93 -s 2 -S COLOR -c black -o black -i black -I black
n -t 94.000000 -s 5 -x 6.038690 -y 9.797379 -U 0.135458 -V -0.794659 -T 11.776610