D 62.035693494 _176_ IFQ  --- 7943 message 3812 [0 ffffffff b0 800] ------- [176:255 -1:255 32 0] 
D 88.166673058 _36_ IFQ  --- 18520 message 3920 [0 ffffffff 24 800] ------- [36:255 -1:255 32 0] 
D 88.266061024 _36_ IFQ  --- 18613 message 3920 [0 ffffffff 24 800] ------- [36:255 -1:255 32 0] 
D 88.331166806 _36_ IFQ  --- 18578 message 3920 [0 ffffffff 24 800] ------- [36:255 -1:255 32 0] 
D 88.360411601 _36_ IFQ  --- 18700 message 3932 [0 ffffffff 24 800] ------- [36:255 -1:255 32 0] 
D 88.397024719 _36_ IFQ  --- 18754 message 3944 [0 ffffffff 24 800] ------- [36:255 -1:255 32 0] 
D 88.733707858 _36_ IFQ  --- 18777 message 3944 [0 ffffffff 24 800] ------- [36:255 -1:255 32 0] 
D 88.868764497 _36_ IFQ  --- 18811 message 3944 [0 ffffffff 24 800] ------- [36:255 -1:255 32 0] 
D 88.981822707 _36_ IFQ  --- 18832 message 3956 [0 ffffffff 24 800] ------- [36:255 -1:255 32 0] 
D 89.020217099 _36_ IFQ  --- 18907 message 3968 [0 ffffffff 24 800] ------- [36:255 -1:255 32 0] 
D 89.088419446 _36_ IFQ  --- 18937 message 3956 [0 ffffffff 24 800] ------- [36:255 -1:255 32 0] 
D 89.167067942 _36_ IFQ  --- 18986 message 3968 [0 ffffffff 24 800] ------- [36:255 -1:255 32 0] 
D 89.233197859 _36_ IFQ  --- 19024 message 3968 [0 ffffffff 24 800] ------- [36:255 -1:255 32 0] 
D 89.291158555 _36_ IFQ  --- 19048 message 3956 [0 ffffffff 24 800] ------- [36:255 -1:255 32 0] 
D 89.369316850 _36_ IFQ  --- 19068 message 3956 [0 ffffffff 24 800] ------- [36:255 -1:255 32 0] 
D 89.430125092 _36_ IFQ  --- 19147 message 3956 [0 ffffffff 24 800] ------- [36:255 -1:255 32 0] 
D 89.530516160 _36_ IFQ  --- 19204 message 3968 [0 ffffffff 24 800] ------- [36:255 -1:255 32 0] 
D 89.546178358 _36_ IFQ  --- 19233 message 3968 [0 ffffffff 24 800] ------- [36:255 -1:255 32 0] 
D 89.725566012 _36_ IFQ  --- 19261 message 3968 [0 ffffffff 24 800] ------- [36:255 -1:255 32 0] 
D 89.917793169 _36_ IFQ  --- 19311 message 3968 [0 ffffffff 24 800] ------- [36:255 -1:255 32 0] 
D 90.384078012 _36_ IFQ  --- 19374 message 3968 [0 ffffffff 24 800] ------- [36:255 -1:255 32 0] 
D 90.651163685 _36_ IFQ  --- 19425 message 3968 [0 ffffffff 24 800] ------- [36:255 -1:255 32 0] 
D 90.758445558 _36_ IFQ  --- 19455 message 3968 [0 ffffffff 24 800] ------- [36:255 -1:255 32 0] 
D 90.821288888 _36_ IFQ  --- 19502 message 3968 [0 ffffffff 24 800] ------- [36:255 -1:255 32 0] 
D 91.091136082 _36_ IFQ  --- 19531 message 3968 [0 ffffffff 24 800] ------- [36:255 -1:255 32 0] 
D 91.093240866 _280_ IFQ  --- 17766 message 3956 [0 ffffffff 118 800] ------- [280:255 -1:255 32 0] 
D 91.430341562 _36_ IFQ  --- 19551 message 3956 [0 ffffffff 24 800] ------- [36:255 -1:255 32 0] 
D 91.495832590 _36_ IFQ  --- 19583 message 3956 [0 ffffffff 24 800] ------- [36:255 -1:255 32 0] 
D 91.528212299 _36_ IFQ  --- 19611 message 3956 [0 ffffffff 24 800] ------- [36:255 -1:255 32 0] 
D 91.567888059 _36_ IFQ  --- 19637 message 3968 [0 ffffffff 24 800] ------- [36:255 -1:255 32 0] 
D 91.990923938 _36_ IFQ  --- 19687 message 3968 [0 ffffffff 24 800] ------- [36:255 -1:255 32 0] 
D 92.122142252 _36_ IFQ  --- 19719 message 3968 [0 ffffffff 24 800] ------- [36:255 -1:255 32 0] 
D 92.188488542 _36_ IFQ  --- 19760 message 3956 [0 ffffffff 24 800] ------- [36:255 -1:255 32 0] 
D 92.252235904 _36_ IFQ  --- 19796 message 3956 [0 ffffffff 24 800] ------- [36:255 -1:255 32 0] 
D 92.388580212 _36_ IFQ  --- 19926 message 3956 [0 ffffffff 24 800] ------- [36:255 -1:255 32 0] 
D 92.527915177 _43_ IFQ  --- 20749 message 3980 [0 ffffffff 2b 800] ------- [43:255 -1:255 32 0] 
D 92.644556594 _43_ IFQ  --- 20856 message 3968 [0 ffffffff 2b 800] ------- [43:255 -1:255 32 0] 
D 92.662361215 _280_ IFQ  --- 17798 message 3956 [0 ffffffff 118 800] ------- [280:255 -1:255 32 0] 
D 92.691204272 _280_ IFQ  --- 17857 message 3944 [0 ffffffff 118 800] ------- [280:255 -1:255 32 0] 
D 92.695333832 _43_ IFQ  --- 20910 message 3944 [0 ffffffff 2b 800] ------- [43:255 -1:255 32 0] 
D 92.696693288 _36_ IFQ  --- 19940 message 3956 [0 ffffffff 24 800] ------- [36:255 -1:255 32 0] 
D 92.758257967 _43_ IFQ  --- 20961 message 3956 [0 ffffffff 2b 800] ------- [43:255 -1:255 32 0] 
D 92.760020633 _36_ IFQ  --- 19988 message 3956 [0 ffffffff 24 800] ------- [36:255 -1:255 32 0] 
D 92.764085136 _43_ IFQ  --- 21025 message 3956 [0 ffffffff 2b 800] ------- [43:255 -1:255 32 0] 
D 92.825784122 _43_ IFQ  --- 21064 message 3956 [0 ffffffff 2b 800] ------- [43:255 -1:255 32 0] 
D 92.827920454 _36_ IFQ  --- 20106 message 3968 [0 ffffffff 24 800] ------- [36:255 -1:255 32 0] 
D 92.896640667 _36_ IFQ  --- 20125 message 3968 [0 ffffffff 24 800] ------- [36:255 -1:255 32 0] 
D 92.960226824 _43_ IFQ  --- 21069 message 3956 [0 ffffffff 2b 800] ------- [43:255 -1:255 32 0] 
D 93.023317791 _43_ IFQ  --- 21104 message 3956 [0 ffffffff 2b 800] ------- [43:255 -1:255 32 0] 
D 93.023367277 _36_ IFQ  --- 20130 message 3968 [0 ffffffff 24 800] ------- [36:255 -1:255 32 0] 
D 93.125721411 _43_ IFQ  --- 21140 message 3956 [0 ffffffff 2b 800] ------- [43:255 -1:255 32 0] 
D 93.171091635 _43_ IFQ  --- 21182 message 3980 [0 ffffffff 2b 800] ------- [43:255 -1:255 32 0] 
D 93.234127567 _36_ IFQ  --- 20144 message 3968 [0 ffffffff 24 800] ------- [36:255 -1:255 32 0] 
D 93.241976919 _43_ IFQ  --- 21197 message 3992 [0 ffffffff 2b 800] ------- [43:255 -1:255 32 0] 
D 93.308730686 _43_ IFQ  --- 21242 message 3992 [0 ffffffff 2b 800] ------- [43:255 -1:255 32 0] 
D 93.308874526 _36_ IFQ  --- 20190 message 3944 [0 ffffffff 24 800] ------- [36:255 -1:255 32 0] 
D 93.376177359 _43_ IFQ  --- 21314 message 3992 [0 ffffffff 2b 800] ------- [43:255 -1:255 32 0] 
D 93.378954872 _36_ IFQ  --- 20212 message 3956 [0 ffffffff 24 800] ------- [36:255 -1:255 32 0] 
D 93.444941129 _43_ IFQ  --- 21316 message 3992 [0 ffffffff 2b 800] ------- [43:255 -1:255 32 0] 
D 93.512434325 _43_ IFQ  --- 21354 message 3968 [0 ffffffff 2b 800] ------- [43:255 -1:255 32 0] 
D 93.518049041 _36_ IFQ  --- 20275 message 3956 [0 ffffffff 24 800] ------- [36:255 -1:255 32 0] 
D 93.523459026 _43_ IFQ  --- 21413 message 3968 [0 ffffffff 2b 800] ------- [43:255 -1:255 32 0] 
D 93.576320891 _36_ IFQ  --- 20301 message 3956 [0 ffffffff 24 800] ------- [36:255 -1:255 32 0] 
D 93.581806841 _43_ IFQ  --- 21438 message 3968 [0 ffffffff 2b 800] ------- [43:255 -1:255 32 0] 
D 93.586261321 _43_ IFQ  --- 21478 message 3968 [0 ffffffff 2b 800] ------- [43:255 -1:255 32 0] 
D 93.621547451 _43_ IFQ  --- 21525 message 3968 [0 ffffffff 2b 800] ------- [43:255 -1:255 32 0] 
D 93.657853927 _36_ IFQ  --- 20381 message 3956 [0 ffffffff 24 800] ------- [36:255 -1:255 32 0] 
D 93.658118637 _43_ IFQ  --- 21555 message 3980 [0 ffffffff 2b 800] ------- [43:255 -1:255 32 0] 
D 93.719132631 _43_ IFQ  --- 21630 message 3992 [0 ffffffff 2b 800] ------- [43:255 -1:255 32 0] 
D 93.723176943 _36_ IFQ  --- 20515 message 3956 [0 ffffffff 24 800] ------- [36:255 -1:255 32 0] 
D 93.728731598 _43_ IFQ  --- 21688 message 3992 [0 ffffffff 2b 800] ------- [43:255 -1:255 32 0] 
D 93.761238229 _43_ IFQ  --- 21736 message 4004 [0 ffffffff 2b 800] ------- [43:255 -1:255 32 0] 
D 93.795491881 _43_ IFQ  --- 21766 message 4004 [0 ffffffff 2b 800] ------- [43:255 -1:255 32 0] 
D 93.841174028 _43_ IFQ  --- 21888 message 3992 [0 ffffffff 2b 800] ------- [43:255 -1:255 32 0] 
D 94.042397346 _43_ IFQ  --- 21912 message 3992 [0 ffffffff 2b 800] ------- [43:255 -1:255 32 0] 
D 94.106977985 _43_ IFQ  --- 21966 message 3968 [0 ffffffff 2b 800] ------- [43:255 -1:255 32 0] 
D 94.112624905 _36_ IFQ  --- 20546 message 3944 [0 ffffffff 24 800] ------- [36:255 -1:255 32 0] 
D 94.149370812 _43_ IFQ  --- 22001 message 3968 [0 ffffffff 2b 800] ------- [43:255 -1:255 32 0] 
D 94.219567227 _43_ IFQ  --- 22034 message 3968 [0 ffffffff 2b 800] ------- [43:255 -1:255 32 0] 
D 94.285992278 _36_ IFQ  --- 20565 message 3944 [0 ffffffff 24 800] ------- [36:255 -1:255 32 0] 
D 94.289610731 _43_ IFQ  --- 22170 message 3980 [0 ffffffff 2b 800] ------- [43:255 -1:255 32 0] 
D 94.354463473 _43_ IFQ  --- 22180 message 3968 [0 ffffffff 2b 800] ------- [43:255 -1:255 32 0] 
D 94.429909701 _43_ IFQ  --- 22196 message 3968 [0 ffffffff 2b 800] ------- [43:255 -1:255 32 0] 
D 94.430131883 _43_ IFQ  --- 22205 message 3968 [0 ffffffff 2b 800] ------- [43:255 -1:255 32 0] 
D 94.498086598 _43_ IFQ  --- 22229 message 3968 [0 ffffffff 2b 800] ------- [43:255 -1:255 32 0] 
D 94.498598896 _36_ IFQ  --- 20582 message 3944 [0 ffffffff 24 800] ------- [36:255 -1:255 32 0] 
D 94.564595265 _43_ IFQ  --- 22306 message 3980 [0 ffffffff 2b 800] ------- [43:255 -1:255 32 0] 
D 94.566136017 _36_ IFQ  --- 20620 message 3956 [0 ffffffff 24 800] ------- [36:255 -1:255 32 0] 
D 94.638691722 _303_ IFQ  --- 21021 message 3956 [0 ffffffff 12f 800] ------- [303:255 -1:255 32 0] 
D 94.638816601 _43_ IFQ  --- 22325 message 3980 [0 ffffffff 2b 800] ------- [43:255 -1:255 32 0] 
D 94.643303092 _43_ IFQ  --- 22376 message 3980 [0 ffffffff 2b 800] ------- [43:255 -1:255 32 0] 
D 94.741340182 _43_ IFQ  --- 22412 message 3980 [0 ffffffff 2b 800] ------- [43:255 -1:255 32 0] 
D 94.743194970 _36_ IFQ  --- 20667 message 3968 [0 ffffffff 24 800] ------- [36:255 -1:255 32 0] 
D 94.876210734 _36_ IFQ  --- 20704 message 3968 [0 ffffffff 24 800] ------- [36:255 -1:255 32 0] 
D 94.878802833 _43_ IFQ  --- 22521 message 3992 [0 ffffffff 2b 800] ------- [43:255 -1:255 32 0] 
D 94.942699779 _36_ IFQ  --- 20727 message 3968 [0 ffffffff 24 800] ------- [36:255 -1:255 32 0] 
D 94.946379986 _43_ IFQ  --- 22548 message 3992 [0 ffffffff 2b 800] ------- [43:255 -1:255 32 0] 
D 95.008763538 _36_ IFQ  --- 20744 message 3968 [0 ffffffff 24 800] ------- [36:255 -1:255 32 0] 
D 95.014356805 _43_ IFQ  --- 22602 message 3980 [0 ffffffff 2b 800] ------- [43:255 -1:255 32 0] 
D 95.048638431 _43_ IFQ  --- 22651 message 3980 [0 ffffffff 2b 800] ------- [43:255 -1:255 32 0] 
D 95.049709847 _303_ IFQ  --- 21072 message 3956 [0 ffffffff 12f 800] ------- [303:255 -1:255 32 0] 
D 95.050132085 _43_ IFQ  --- 22678 message 3992 [0 ffffffff 2b 800] ------- [43:255 -1:255 32 0] 
D 95.057690360 _237_ IFQ  --- 21066 message 3992 [0 ffffffff ed 800] ------- [237:255 -1:255 32 0] 
D 95.119155874 _303_ IFQ  --- 21095 message 3956 [0 ffffffff 12f 800] ------- [303:255 -1:255 32 0] 
D 95.122534176 _331_ IFQ  --- 20405 message 3968 [0 ffffffff 14b 800] ------- [331:255 -1:255 32 0] 
D 95.124400525 _237_ IFQ  --- 21063 message 3992 [0 ffffffff ed 800] ------- [237:255 -1:255 32 0] 
D 95.163463483 _43_ IFQ  --- 22689 message 3992 [0 ffffffff 2b 800] ------- [43:255 -1:255 32 0] 
D 95.357361791 _43_ IFQ  --- 22708 message 3992 [0 ffffffff 2b 800] ------- [43:255 -1:255 32 0] 
D 95.361003639 _43_ IFQ  --- 22717 message 3992 [0 ffffffff 2b 800] ------- [43:255 -1:255 32 0] 
D 95.390289057 _43_ IFQ  --- 22738 message 3992 [0 ffffffff 2b 800] ------- [43:255 -1:255 32 0] 
D 95.426786841 _237_ IFQ  --- 21105 message 3992 [0 ffffffff ed 800] ------- [237:255 -1:255 32 0] 
D 95.429484277 _331_ IFQ  --- 20473 message 3968 [0 ffffffff 14b 800] ------- [331:255 -1:255 32 0] 
D 95.429545584 _303_ IFQ  --- 21157 message 3956 [0 ffffffff 12f 800] ------- [303:255 -1:255 32 0] 
D 95.436469482 _43_ IFQ  --- 22758 message 3980 [0 ffffffff 2b 800] ------- [43:255 -1:255 32 0] 
D 95.527666017 _43_ IFQ  --- 22794 message 3980 [0 ffffffff 2b 800] ------- [43:255 -1:255 32 0] 
D 95.593921062 _36_ IFQ  --- 20858 message 3968 [0 ffffffff 24 800] ------- [36:255 -1:255 32 0] 
D 95.597164458 _43_ IFQ  --- 22821 message 3980 [0 ffffffff 2b 800] ------- [43:255 -1:255 32 0] 
D 95.622581289 _43_ IFQ  --- 22872 message 3992 [0 ffffffff 2b 800] ------- [43:255 -1:255 32 0] 
D 95.629329123 _36_ IFQ  --- 20909 message 3944 [0 ffffffff 24 800] ------- [36:255 -1:255 32 0] 
D 95.755691302 _43_ IFQ  --- 22906 message 3992 [0 ffffffff 2b 800] ------- [43:255 -1:255 32 0] 
D 95.758464307 _36_ IFQ  --- 20995 message 3956 [0 ffffffff 24 800] ------- [36:255 -1:255 32 0] 
D 95.855542158 _36_ IFQ  --- 21057 message 3956 [0 ffffffff 24 800] ------- [36:255 -1:255 32 0] 
D 95.856134550 _43_ IFQ  --- 22941 message 3992 [0 ffffffff 2b 800] ------- [43:255 -1:255 32 0] 
D 95.857258252 _303_ IFQ  --- 21176 message 3980 [0 ffffffff 12f 800] ------- [303:255 -1:255 32 0] 
D 95.857880195 _43_ IFQ  --- 22950 message 3992 [0 ffffffff 2b 800] ------- [43:255 -1:255 32 0] 
D 95.861330852 _237_ IFQ  --- 21142 message 3992 [0 ffffffff ed 800] ------- [237:255 -1:255 32 0] 
D 95.936255072 _43_ IFQ  --- 22993 message 3992 [0 ffffffff 2b 800] ------- [43:255 -1:255 32 0] 
D 95.942196999 _237_ IFQ  --- 21181 message 4016 [0 ffffffff ed 800] ------- [237:255 -1:255 32 0] 
D 96.031981094 _36_ IFQ  --- 21094 message 3956 [0 ffffffff 24 800] ------- [36:255 -1:255 32 0] 
D 96.039568037 _43_ IFQ  --- 23049 message 3992 [0 ffffffff 2b 800] ------- [43:255 -1:255 32 0] 
D 96.047648961 _237_ IFQ  --- 21196 message 4028 [0 ffffffff ed 800] ------- [237:255 -1:255 32 0] 
D 96.119423750 _43_ IFQ  --- 23105 message 4004 [0 ffffffff 2b 800] ------- [43:255 -1:255 32 0] 
D 96.120991525 _36_ IFQ  --- 21148 message 3956 [0 ffffffff 24 800] ------- [36:255 -1:255 32 0] 
D 96.123033326 _303_ IFQ  --- 21298 message 3992 [0 ffffffff 12f 800] ------- [303:255 -1:255 32 0] 
D 96.123340341 _331_ IFQ  --- 20502 message 3968 [0 ffffffff 14b 800] ------- [331:255 -1:255 32 0] 
D 96.126517522 _237_ IFQ  --- 21313 message 4028 [0 ffffffff ed 800] ------- [237:255 -1:255 32 0] 
D 96.128305411 _232_ IFQ  --- 21807 message 4004 [0 ffffffff e8 800] ------- [232:255 -1:255 32 0] 
D 96.184645635 _36_ IFQ  --- 21207 message 3992 [0 ffffffff 24 800] ------- [36:255 -1:255 32 0] 
D 96.190616720 _43_ IFQ  --- 23120 message 4004 [0 ffffffff 2b 800] ------- [43:255 -1:255 32 0] 
D 96.255519521 _331_ IFQ  --- 20572 message 3956 [0 ffffffff 14b 800] ------- [331:255 -1:255 32 0] 
D 96.259714530 _303_ IFQ  --- 21324 message 3980 [0 ffffffff 12f 800] ------- [303:255 -1:255 32 0] 
D 96.269783979 _312_ IFQ  --- 21734 message 4004 [0 ffffffff 138 800] ------- [312:255 -1:255 32 0] 
D 96.269985046 _43_ IFQ  --- 23146 message 4004 [0 ffffffff 2b 800] ------- [43:255 -1:255 32 0] 
D 96.270347130 _303_ IFQ  --- 21424 message 3968 [0 ffffffff 12f 800] ------- [303:255 -1:255 32 0] 
D 96.272132830 _232_ IFQ  --- 21826 message 4004 [0 ffffffff e8 800] ------- [232:255 -1:255 32 0] 
D 96.308419693 _331_ IFQ  --- 20612 message 3968 [0 ffffffff 14b 800] ------- [331:255 -1:255 32 0] 
D 96.310665464 _312_ IFQ  --- 21815 message 4004 [0 ffffffff 138 800] ------- [312:255 -1:255 32 0] 
D 96.312157805 _303_ IFQ  --- 21437 message 3968 [0 ffffffff 12f 800] ------- [303:255 -1:255 32 0] 
D 96.312821128 _232_ IFQ  --- 21842 message 4004 [0 ffffffff e8 800] ------- [232:255 -1:255 32 0] 
D 96.313958313 _237_ IFQ  --- 21317 message 4016 [0 ffffffff ed 800] ------- [237:255 -1:255 32 0] 
D 96.314734371 _43_ IFQ  --- 23162 message 4016 [0 ffffffff 2b 800] ------- [43:255 -1:255 32 0] 
D 96.378444812 _43_ IFQ  --- 23193 message 4016 [0 ffffffff 2b 800] ------- [43:255 -1:255 32 0] 
D 96.544385646 _43_ IFQ  --- 23237 message 4028 [0 ffffffff 2b 800] ------- [43:255 -1:255 32 0] 
D 96.544667040 _36_ IFQ  --- 21240 message 3992 [0 ffffffff 24 800] ------- [36:255 -1:255 32 0] 
D 96.551254403 _232_ IFQ  --- 21907 message 3992 [0 ffffffff e8 800] ------- [232:255 -1:255 32 0] 
D 96.554422995 _36_ IFQ  --- 21265 message 3992 [0 ffffffff 24 800] ------- [36:255 -1:255 32 0] 
D 96.555051353 _331_ IFQ  --- 20690 message 3980 [0 ffffffff 14b 800] ------- [331:255 -1:255 32 0] 
D 96.558281356 _43_ IFQ  --- 23273 message 4028 [0 ffffffff 2b 800] ------- [43:255 -1:255 32 0] 
D 96.559265536 _237_ IFQ  --- 21436 message 3992 [0 ffffffff ed 800] ------- [237:255 -1:255 32 0] 
D 96.624394949 _232_ IFQ  --- 21939 message 3980 [0 ffffffff e8 800] ------- [232:255 -1:255 32 0] 
D 96.627291274 _312_ IFQ  --- 21825 message 4004 [0 ffffffff 138 800] ------- [312:255 -1:255 32 0] 
D 96.628267008 _303_ IFQ  --- 21452 message 3968 [0 ffffffff 12f 800] ------- [303:255 -1:255 32 0] 
D 96.633928452 _232_ IFQ  --- 22040 message 3968 [0 ffffffff e8 800] ------- [232:255 -1:255 32 0] 
D 96.763608599 _43_ IFQ  --- 23293 message 4028 [0 ffffffff 2b 800] ------- [43:255 -1:255 32 0] 
D 96.769768627 _303_ IFQ  --- 21495 message 3968 [0 ffffffff 12f 800] ------- [303:255 -1:255 32 0] 
D 96.770562028 _237_ IFQ  --- 21414 message 3992 [0 ffffffff ed 800] ------- [237:255 -1:255 32 0] 
D 96.801062861 _312_ IFQ  --- 21840 message 4004 [0 ffffffff 138 800] ------- [312:255 -1:255 32 0] 
D 96.801917757 _237_ IFQ  --- 21480 message 3992 [0 ffffffff ed 800] ------- [237:255 -1:255 32 0] 
D 96.803248401 _303_ IFQ  --- 21561 message 3980 [0 ffffffff 12f 800] ------- [303:255 -1:255 32 0] 
D 96.803405796 _43_ IFQ  --- 23299 message 4028 [0 ffffffff 2b 800] ------- [43:255 -1:255 32 0] 
D 96.806213020 _232_ IFQ  --- 22173 message 3968 [0 ffffffff e8 800] ------- [232:255 -1:255 32 0] 
D 96.902441823 _43_ IFQ  --- 23321 message 4016 [0 ffffffff 2b 800] ------- [43:255 -1:255 32 0] 
D 97.071082794 _43_ IFQ  --- 23331 message 4016 [0 ffffffff 2b 800] ------- [43:255 -1:255 32 0] 
D 97.133934407 _43_ IFQ  --- 23343 message 4016 [0 ffffffff 2b 800] ------- [43:255 -1:255 32 0] 
D 97.135916331 _43_ IFQ  --- 23364 message 4016 [0 ffffffff 2b 800] ------- [43:255 -1:255 32 0] 
D 97.139500588 _232_ IFQ  --- 22149 message 3980 [0 ffffffff e8 800] ------- [232:255 -1:255 32 0] 
D 97.140151887 _237_ IFQ  --- 21567 message 4004 [0 ffffffff ed 800] ------- [237:255 -1:255 32 0] 
D 97.140710857 _303_ IFQ  --- 21705 message 3992 [0 ffffffff 12f 800] ------- [303:255 -1:255 32 0] 
D 97.199692118 _43_ IFQ  --- 23383 message 4004 [0 ffffffff 2b 800] ------- [43:255 -1:255 32 0] 
D 97.263123083 _36_ IFQ  --- 21306 message 3992 [0 ffffffff 24 800] ------- [36:255 -1:255 32 0] 
D 97.311484716 _303_ IFQ  --- 21729 message 4004 [0 ffffffff 12f 800] ------- [303:255 -1:255 32 0] 
D 97.315753972 _232_ IFQ  --- 22199 message 3968 [0 ffffffff e8 800] ------- [232:255 -1:255 32 0] 
D 97.316094334 _312_ IFQ  --- 21913 message 3992 [0 ffffffff 138 800] ------- [312:255 -1:255 32 0] 
D 97.319533338 _43_ IFQ  --- 23387 message 4004 [0 ffffffff 2b 800] ------- [43:255 -1:255 32 0] 
D 97.375415665 _43_ IFQ  --- 23410 message 4004 [0 ffffffff 2b 800] ------- [43:255 -1:255 32 0] 
D 97.454535517 _237_ IFQ  --- 21690 message 4016 [0 ffffffff ed 800] ------- [237:255 -1:255 32 0] 
D 97.554537472 _232_ IFQ  --- 22357 message 3980 [0 ffffffff e8 800] ------- [232:255 -1:255 32 0] 
D 97.620352904 _237_ IFQ  --- 21735 message 4028 [0 ffffffff ed 800] ------- [237:255 -1:255 32 0] 
D 97.622103496 _43_ IFQ  --- 23440 message 4004 [0 ffffffff 2b 800] ------- [43:255 -1:255 32 0] 
D 97.622412779 _312_ IFQ  --- 22041 message 3968 [0 ffffffff 138 800] ------- [312:255 -1:255 32 0] 
D 97.625662333 _232_ IFQ  --- 22378 message 3980 [0 ffffffff e8 800] ------- [232:255 -1:255 32 0] 
D 97.861361504 _237_ IFQ  --- 21765 message 4028 [0 ffffffff ed 800] ------- [237:255 -1:255 32 0] 
D 97.862845049 _43_ IFQ  --- 23472 message 4004 [0 ffffffff 2b 800] ------- [43:255 -1:255 32 0] 
D 97.863750039 _43_ IFQ  --- 23553 message 4004 [0 ffffffff 2b 800] ------- [43:255 -1:255 32 0] 
D 97.865019334 _303_ IFQ  --- 21780 message 4004 [0 ffffffff 12f 800] ------- [303:255 -1:255 32 0] 
D 97.865509718 _232_ IFQ  --- 22403 message 3980 [0 ffffffff e8 800] ------- [232:255 -1:255 32 0] 
D 97.865547651 _312_ IFQ  --- 22104 message 3968 [0 ffffffff 138 800] ------- [312:255 -1:255 32 0] 
D 97.865887598 _232_ IFQ  --- 22438 message 3980 [0 ffffffff e8 800] ------- [232:255 -1:255 32 0] 
D 97.867866114 _237_ IFQ  --- 21810 message 4028 [0 ffffffff ed 800] ------- [237:255 -1:255 32 0] 
D 97.870165348 _312_ IFQ  --- 22166 message 3980 [0 ffffffff 138 800] ------- [312:255 -1:255 32 0] 
D 97.871234359 _303_ IFQ  --- 21881 message 4004 [0 ffffffff 12f 800] ------- [303:255 -1:255 32 0] 
D 97.934073931 _43_ IFQ  --- 23575 message 4004 [0 ffffffff 2b 800] ------- [43:255 -1:255 32 0] 
D 97.936395176 _303_ IFQ  --- 21906 message 4004 [0 ffffffff 12f 800] ------- [303:255 -1:255 32 0] 
D 97.936703152 _237_ IFQ  --- 22169 message 4004 [0 ffffffff ed 800] ------- [237:255 -1:255 32 0] 
D 97.936721871 _232_ IFQ  --- 22488 message 3992 [0 ffffffff e8 800] ------- [232:255 -1:255 32 0] 
D 97.941660493 _43_ IFQ  --- 23587 message 3992 [0 ffffffff 2b 800] ------- [43:255 -1:255 32 0] 
D 97.941811365 _312_ IFQ  --- 22178 message 3968 [0 ffffffff 138 800] ------- [312:255 -1:255 32 0] 
D 98.001222879 _43_ IFQ  --- 23646 message 3992 [0 ffffffff 2b 800] ------- [43:255 -1:255 32 0] 
D 98.134258386 _303_ IFQ  --- 22154 message 3980 [0 ffffffff 12f 800] ------- [303:255 -1:255 32 0] 
D 98.134764946 _232_ IFQ  --- 22570 message 3992 [0 ffffffff e8 800] ------- [232:255 -1:255 32 0] 
D 98.138700115 _312_ IFQ  --- 22204 message 3968 [0 ffffffff 138 800] ------- [312:255 -1:255 32 0] 
D 98.138810340 _237_ IFQ  --- 22179 message 3992 [0 ffffffff ed 800] ------- [237:255 -1:255 32 0] 
D 98.141535709 _43_ IFQ  --- 23655 message 3980 [0 ffffffff 2b 800] ------- [43:255 -1:255 32 0] 
D 98.172889682 _303_ IFQ  --- 22175 message 3968 [0 ffffffff 12f 800] ------- [303:255 -1:255 32 0] 
D 98.173860098 _232_ IFQ  --- 22685 message 3992 [0 ffffffff e8 800] ------- [232:255 -1:255 32 0] 
D 98.176133857 _237_ IFQ  --- 22203 message 3992 [0 ffffffff ed 800] ------- [237:255 -1:255 32 0] 
D 98.177178920 _312_ IFQ  --- 22232 message 3968 [0 ffffffff 138 800] ------- [312:255 -1:255 32 0] 
D 98.181338931 _43_ IFQ  --- 23695 message 3980 [0 ffffffff 2b 800] ------- [43:255 -1:255 32 0] 
D 98.246393494 _232_ IFQ  --- 22714 message 3992 [0 ffffffff e8 800] ------- [232:255 -1:255 32 0] 
D 98.283020732 _274_ IFQ  --- 22711 message 3992 [0 ffffffff 112 800] ------- [274:255 -1:255 32 0] 
D 98.287739665 _232_ IFQ  --- 22783 message 3980 [0 ffffffff e8 800] ------- [232:255 -1:255 32 0] 
D 98.288426106 _312_ IFQ  --- 22372 message 3980 [0 ffffffff 138 800] ------- [312:255 -1:255 32 0] 
D 98.291636252 _303_ IFQ  --- 22200 message 3968 [0 ffffffff 12f 800] ------- [303:255 -1:255 32 0] 
D 98.291780279 _43_ IFQ  --- 23722 message 3980 [0 ffffffff 2b 800] ------- [43:255 -1:255 32 0] 
D 98.322591229 _274_ IFQ  --- 22837 message 3980 [0 ffffffff 112 800] ------- [274:255 -1:255 32 0] 
D 98.324845644 _232_ IFQ  --- 22814 message 3980 [0 ffffffff e8 800] ------- [232:255 -1:255 32 0] 
D 98.326481413 _312_ IFQ  --- 22379 message 3980 [0 ffffffff 138 800] ------- [312:255 -1:255 32 0] 
D 98.425683130 _43_ IFQ  --- 23734 message 3980 [0 ffffffff 2b 800] ------- [43:255 -1:255 32 0] 
D 98.493344695 _303_ IFQ  --- 22208 message 3968 [0 ffffffff 12f 800] ------- [303:255 -1:255 32 0] 
D 98.500350498 _232_ IFQ  --- 22838 message 3980 [0 ffffffff e8 800] ------- [232:255 -1:255 32 0] 
D 98.500904771 _312_ IFQ  --- 22409 message 3980 [0 ffffffff 138 800] ------- [312:255 -1:255 32 0] 
D 98.501004207 _237_ IFQ  --- 22227 message 3992 [0 ffffffff ed 800] ------- [237:255 -1:255 32 0] 
D 98.501314744 _303_ IFQ  --- 22361 message 3980 [0 ffffffff 12f 800] ------- [303:255 -1:255 32 0] 
D 98.501761607 _274_ IFQ  --- 22876 message 3992 [0 ffffffff 112 800] ------- [274:255 -1:255 32 0] 
D 98.502728371 _312_ IFQ  --- 22490 message 3992 [0 ffffffff 138 800] ------- [312:255 -1:255 32 0] 
D 98.502985127 _232_ IFQ  --- 22881 message 3992 [0 ffffffff e8 800] ------- [232:255 -1:255 32 0] 
D 98.503012368 _43_ IFQ  --- 23762 message 3968 [0 ffffffff 2b 800] ------- [43:255 -1:255 32 0] 
D 98.503904935 _274_ IFQ  --- 22949 message 3992 [0 ffffffff 112 800] ------- [274:255 -1:255 32 0] 
D 98.576157720 _312_ IFQ  --- 22687 message 4004 [0 ffffffff 138 800] ------- [312:255 -1:255 32 0] 
D 98.576365478 _232_ IFQ  --- 22917 message 3992 [0 ffffffff e8 800] ------- [232:255 -1:255 32 0] 
D 98.576797075 _303_ IFQ  --- 22404 message 3980 [0 ffffffff 12f 800] ------- [303:255 -1:255 32 0] 
D 98.579206087 _274_ IFQ  --- 23099 message 4004 [0 ffffffff 112 800] ------- [274:255 -1:255 32 0] 
D 98.614649935 _237_ IFQ  --- 22375 message 4004 [0 ffffffff ed 800] ------- [237:255 -1:255 32 0] 
D 98.616358523 _274_ IFQ  --- 23115 message 4004 [0 ffffffff 112 800] ------- [274:255 -1:255 32 0] 
D 98.617800877 _232_ IFQ  --- 22957 message 3992 [0 ffffffff e8 800] ------- [232:255 -1:255 32 0] 
D 98.620537562 _303_ IFQ  --- 22437 message 3980 [0 ffffffff 12f 800] ------- [303:255 -1:255 32 0] 
D 98.621158027 _312_ IFQ  --- 22791 message 3992 [0 ffffffff 138 800] ------- [312:255 -1:255 32 0] 
D 98.621643727 _43_ IFQ  --- 23785 message 3968 [0 ffffffff 2b 800] ------- [43:255 -1:255 32 0] 
D 98.754806391 _274_ IFQ  --- 23196 message 4016 [0 ffffffff 112 800] ------- [274:255 -1:255 32 0] 
D 98.755884824 _312_ IFQ  --- 22820 message 3992 [0 ffffffff 138 800] ------- [312:255 -1:255 32 0] 
D 98.993503776 _159_ IFQ  --- 23649 message 3980 [0 ffffffff 9f 800] ------- [159:255 -1:255 32 0] 
D 98.995833537 _242_ IFQ  --- 23652 message 3980 [0 ffffffff f2 800] ------- [242:255 -1:255 32 0] 
D 99.070332599 _242_ IFQ  --- 23789 message 3968 [0 ffffffff f2 800] ------- [242:255 -1:255 32 0] 
D 99.070794954 _159_ IFQ  --- 23790 message 3968 [0 ffffffff 9f 800] ------- [159:255 -1:255 32 0] 
D 99.102602518 _159_ IFQ  --- 23819 message 3956 [0 ffffffff 9f 800] ------- [159:255 -1:255 32 0] 
D 99.102771886 _178_ IFQ  --- 23825 message 3956 [0 ffffffff b2 800] ------- [178:255 -1:255 32 0] 
D 99.104418871 _349_ IFQ  --- 23824 message 3956 [0 ffffffff 15d 800] ------- [349:255 -1:255 32 0] 
D 99.110149802 _242_ IFQ  --- 23822 message 3956 [0 ffffffff f2 800] ------- [242:255 -1:255 32 0] 
D 99.140742255 _237_ IFQ  --- 22411 message 4004 [0 ffffffff ed 800] ------- [237:255 -1:255 32 0] 
D 99.140758205 _232_ IFQ  --- 23101 message 4004 [0 ffffffff e8 800] ------- [232:255 -1:255 32 0] 
D 99.147288127 _242_ IFQ  --- 23851 message 3956 [0 ffffffff f2 800] ------- [242:255 -1:255 32 0] 
D 99.148647360 _312_ IFQ  --- 22835 message 3992 [0 ffffffff 138 800] ------- [312:255 -1:255 32 0] 
D 99.149308045 _178_ IFQ  --- 23849 message 3956 [0 ffffffff b2 800] ------- [178:255 -1:255 32 0] 
D 99.149637841 _159_ IFQ  --- 23850 message 3956 [0 ffffffff 9f 800] ------- [159:255 -1:255 32 0] 
D 99.149756476 _303_ IFQ  --- 22513 message 3992 [0 ffffffff 12f 800] ------- [303:255 -1:255 32 0] 
D 99.153426862 _159_ IFQ  --- 23888 message 3956 [0 ffffffff 9f 800] ------- [159:255 -1:255 32 0] 
D 99.180905150 _232_ IFQ  --- 23140 message 4004 [0 ffffffff e8 800] ------- [232:255 -1:255 32 0] 
D 99.183175516 _178_ IFQ  --- 23912 message 3956 [0 ffffffff b2 800] ------- [178:255 -1:255 32 0] 
D 99.183957397 _242_ IFQ  --- 23889 message 3956 [0 ffffffff f2 800] ------- [242:255 -1:255 32 0] 
D 99.184325329 _349_ IFQ  --- 23848 message 3956 [0 ffffffff 15d 800] ------- [349:255 -1:255 32 0] 
D 99.185204723 _312_ IFQ  --- 22842 message 3992 [0 ffffffff 138 800] ------- [312:255 -1:255 32 0] 
D 99.185719654 _274_ IFQ  --- 23216 message 4016 [0 ffffffff 112 800] ------- [274:255 -1:255 32 0] 
D 99.186778820 _349_ IFQ  --- 23910 message 3956 [0 ffffffff 15d 800] ------- [349:255 -1:255 32 0] 
D 99.187542030 _159_ IFQ  --- 23911 message 3956 [0 ffffffff 9f 800] ------- [159:255 -1:255 32 0] 
D 99.191394498 _178_ IFQ  --- 24043 message 3920 [0 ffffffff b2 800] ------- [178:255 -1:255 32 0] 
D 99.346493158 _43_ IFQ  --- 23827 message 3956 [0 ffffffff 2b 800] ------- [43:255 -1:255 32 0] 
D 99.346835855 _178_ IFQ  --- 24063 message 3920 [0 ffffffff b2 800] ------- [178:255 -1:255 32 0] 
D 99.347316030 _312_ IFQ  --- 22879 message 4004 [0 ffffffff 138 800] ------- [312:255 -1:255 32 0] 
D 99.347471850 _242_ IFQ  --- 23913 message 3956 [0 ffffffff f2 800] ------- [242:255 -1:255 32 0] 
D 99.350045889 _274_ IFQ  --- 23391 message 4004 [0 ffffffff 112 800] ------- [274:255 -1:255 32 0] 
D 99.350269889 _349_ IFQ  --- 23917 message 3956 [0 ffffffff 15d 800] ------- [349:255 -1:255 32 0] 
D 99.352982624 _232_ IFQ  --- 23166 message 4016 [0 ffffffff e8 800] ------- [232:255 -1:255 32 0] 
D 99.356000144 _165_ IFQ  --- 23787 message 3968 [0 ffffffff a5 800] ------- [165:255 -1:255 32 0] 
D 99.390994682 _274_ IFQ  --- 23412 message 4004 [0 ffffffff 112 800] ------- [274:255 -1:255 32 0] 
D 99.417581121 _274_ IFQ  --- 23436 message 4004 [0 ffffffff 112 800] ------- [274:255 -1:255 32 0] 
D 99.419834457 _165_ IFQ  --- 23823 message 3956 [0 ffffffff a5 800] ------- [165:255 -1:255 32 0] 
D 99.419873292 _349_ IFQ  --- 24064 message 3920 [0 ffffffff 15d 800] ------- [349:255 -1:255 32 0] 
D 99.420784305 _242_ IFQ  --- 23920 message 3956 [0 ffffffff f2 800] ------- [242:255 -1:255 32 0] 
D 99.422232904 _178_ IFQ  --- 24096 message 3932 [0 ffffffff b2 800] ------- [178:255 -1:255 32 0] 
D 99.425694225 _159_ IFQ  --- 23919 message 3956 [0 ffffffff 9f 800] ------- [159:255 -1:255 32 0] 
D 99.425715549 _232_ IFQ  --- 23213 message 4016 [0 ffffffff e8 800] ------- [232:255 -1:255 32 0] 
D 99.552292154 _43_ IFQ  --- 23835 message 3956 [0 ffffffff 2b 800] ------- [43:255 -1:255 32 0] 
D 99.552887834 _36_ IFQ  --- 21352 message 3956 [0 ffffffff 24 800] ------- [36:255 -1:255 32 0] 
D 99.579935517 _43_ IFQ  --- 23870 message 3956 [0 ffffffff 2b 800] ------- [43:255 -1:255 32 0] 
D 99.581552623 _36_ IFQ  --- 21393 message 3956 [0 ffffffff 24 800] ------- [36:255 -1:255 32 0] 
D 99.586749937 _242_ IFQ  --- 24065 message 3920 [0 ffffffff f2 800] ------- [242:255 -1:255 32 0] 
D 99.649194745 _43_ IFQ  --- 23956 message 3968 [0 ffffffff 2b 800] ------- [43:255 -1:255 32 0] 
D 99.709644893 _43_ IFQ  --- 23976 message 3932 [0 ffffffff 2b 800] ------- [43:255 -1:255 32 0] 
D 99.753253721 _43_ IFQ  --- 24005 message 3944 [0 ffffffff 2b 800] ------- [43:255 -1:255 32 0] 
D 99.753584923 _242_ IFQ  --- 24099 message 3932 [0 ffffffff f2 800] ------- [242:255 -1:255 32 0] 
D 99.754605363 _237_ IFQ  --- 22433 message 4004 [0 ffffffff ed 800] ------- [237:255 -1:255 32 0] 
D 99.754731589 _274_ IFQ  --- 23522 message 4004 [0 ffffffff 112 800] ------- [274:255 -1:255 32 0] 