n -t * -s 0  -x 4.0810849999999999 -y 3.6969439999999998 -Z 0 -z 1  -v circle -c black
n -t * -s 1  -x 1.0992440000000001 -y 6.2085889999999999 -Z 0 -z 1  -v circle -c black
n -t * -s 2  -x 3.9687999999999999 -y 1.7697039999999999 -Z 0 -z 1  -v circle -c black
n -t * -s 3  -x 5.9163790000000001 -y 8.178229 -Z 0 -z 2  -v circle -c black
V -t * -v 1.0a5 -a 0
W -t * -x 10 -y 10
A -t * -n 1 -p 0 -o 0x7fffffff -c 30 -a 1
A -t * -h 1 -m 1073741823 -s 0
n -t 0 -s 3 -S COLOR -c red -o black -i red -I black
n -t 0.000000 -s 3 -x 5.916379 -y 8.178229 -U -0.914905 -V 0.947079 -T 1.024470
n -t 0 -s 0 -S COLOR -c black -o black -i black -I black
n -t 0 -s 1 -S COLOR -c black -o black -i black -I black
n -t 0 -s 2 -S COLOR -c black -o black -i black -I black
n -t 1 -s 0 -S COLOR -c black -o black -i black -I black
n -t 1 -s 1 -S COLOR -c black -o black -i black -I black
n -t 1 -s 2 -S COLOR -c black -o black -i black -I black
n -t 2 -s 0 -S COLOR -c black -o black -i black -I black
n -t 2 -s 1 -S COLOR -c black -o black -i black -I black
n -t 2 -s 2 -S COLOR -c black -o black -i black -I black
n -t 3.000000 -s 3 -x 4.979087 -y 9.148483 -U 0.935008 -V -1.542181 -T 3.600652
n -t 3 -s 0 -S COLOR -c black -o black -i black -I black
n -t 3 -s 1 -S COLOR -c black -o black -i black -I black
n -t 3 -s 2 -S COLOR -c black -o black -i black -I black
n -t 3 -s 1 -S COLOR -c green -o black -i green -I black
n -t 4 -s 0 -S COLOR -c black -o black -i black -I black
n -t 4 -s 1 -S COLOR -c black -o green -i black -I green
n -t 4 -s 2 -S COLOR -c black -o black -i black -I black
n -t 5 -s 0 -S COLOR -c black -o black -i black -I black
n -t 5 -s 1 -S COLOR -c black -o black -i black -I black
n -t 5 -s 2 -S COLOR -c black -o black -i black -I black
n -t 6 -s 0 -S COLOR -c black -o black -i black -I black
n -t 6 -s 1 -S COLOR -c black -o black -i black -I black
n -t 6 -s 2 -S COLOR -c black -o black -i black -I black
n -t 6 -s 0 -S COLOR -c green -o black -i green -I black
n -t 7 -s 0 -S COLOR -c black -o green -i black -I green
n -t 7 -s 1 -S COLOR -c black -o black -i black -I black
n -t 7 -s 2 -S COLOR -c black -o black -i black -I black
n -t 7 -s 0 -S COLOR -c green -o black -i green -I black
n -t 8.000000 -s 3 -x 8.345726 -y 3.595627 -U -1.515237 -V -0.766080 -T 3.984619
n -t 8 -s 0 -S COLOR -c black -o green -i black -I green
n -t 8 -s 1 -S COLOR -c black -o black -i black -I black
n -t 8 -s 2 -S COLOR -c black -o black -i black -I black
n -t 8 -s 0 -S COLOR -c green -o black -i green -I black
n -t 8 -s 2 -S COLOR -c green -o black -i green -I black
n -t 9 -s 0 -S COLOR -c black -o green -i black -I green
n -t 9 -s 1 -S COLOR -c black -o black -i black -I black
n -t 9 -s 2 -S COLOR -c black -o green -i black -I green
n -t 9 -s 0 -S COLOR -c green -o black -i green -I black
n -t 9 -s 2 -S COLOR -c green -o black -i green -I black
n -t 10 -s 0 -S COLOR -c black -o green -i black -I green
n -t 10 -s 1 -S COLOR -c black -o black -i black -I black
n -t 10 -s 2 -S COLOR -c black -o green -i black -I green
n -t 10 -s 2 -S COLOR -c green -o black -i green -I black
n -t 10 -s 0 -S COLOR -c green -o black -i green -I black
n -t 11 -s 0 -S COLOR -c black -o green -i black -I green
n -t 11 -s 1 -S COLOR -c black -o black -i black -I black
n -t 11 -s 2 -S COLOR -c black -o green -i black -I green
n -t 11 -s 2 -S COLOR -c green -o black -i green -I black
n -t 11 -s 0 -S COLOR -c green -o black -i green -I black
n -t 12 -s 0 -S COLOR -c black -o green -i black -I green
n -t 12 -s 1 -S COLOR -c black -o black -i black -I black
n -t 12 -s 2 -S COLOR -c black -o green -i black -I green
n -t 12 -s 2 -S COLOR -c green -o black -i green -I black
n -t 12 -s 0 -S COLOR -c green -o black -i green -I black
n -t 13.000000 -s 3 -x 2.308085 -y 0.543091 -U -1.820645 -V 0.223866 -T 1.093995
n -t 13 -s 0 -S COLOR -c black -o green -i black -I green
n -t 13 -s 1 -S COLOR -c black -o black -i black -I black
n -t 13 -s 2 -S COLOR -c black -o green -i black -I green
n -t 13 -s 2 -S COLOR -c green -o black -i green -I black
n -t 13 -s 0 -S COLOR -c green -o black -i green -I black
n -t 14 -s 0 -S COLOR -c black -o green -i black -I green
n -t 14 -s 1 -S COLOR -c black -o black -i black -I black
n -t 14 -s 2 -S COLOR -c black -o green -i black -I green
n -t 14 -s 2 -S COLOR -c green -o black -i green -I black
n -t 14 -s 0 -S COLOR -c green -o black -i green -I black
n -t 15 -s 0 -S COLOR -c black -o green -i black -I green
n -t 15 -s 1 -S COLOR -c black -o black -i black -I black
n -t 15 -s 2 -S COLOR -c black -o green -i black -I green
n -t 15 -s 2 -S COLOR -c green -o black -i green -I black
n -t 15 -s 0 -S COLOR -c green -o black -i green -I black
n -t 16.000000 -s 3 -x 0.316309 -y 0.788000 -U 1.252229 -V 1.889661 -T 4.786001
n -t 16 -s 0 -S COLOR -c black -o green -i black -I green
n -t 16 -s 1 -S COLOR -c black -o black -i black -I black
n -t 16 -s 2 -S COLOR -c black -o green -i black -I green
n -t 16 -s 2 -S COLOR -c green -o black -i green -I black
n -t 16 -s 0 -S COLOR -c green -o black -i green -I black
n -t 17 -s 0 -S COLOR -c black -o green -i black -I green
n -t 17 -s 1 -S COLOR -c black -o black -i black -I black
n -t 17 -s 2 -S COLOR -c black -o green -i black -I green
n -t 17 -s 2 -S COLOR -c green -o black -i green -I black
n -t 17 -s 0 -S COLOR -c green -o black -i green -I black
n -t 18 -s 0 -S COLOR -c black -o green -i black -I green
n -t 18 -s 1 -S COLOR -c black -o black -i black -I black
n -t 18 -s 2 -S COLOR -c black -o green -i black -I green
n -t 18 -s 0 -S COLOR -c green -o black -i green -I black
n -t 18 -s 2 -S COLOR -c green -o black -i green -I black
n -t 19 -s 0 -S COLOR -c black -o green -i black -I green
n -t 19 -s 1 -S COLOR -c black -o black -i black -I black
n -t 19 -s 2 -S COLOR -c black -o green -i black -I green
n -t 19 -s 0 -S COLOR -c green -o black -i green -I black
n -t 19 -s 1 -S COLOR -c green -o black -i green -I black
n -t 20 -s 0 -S COLOR -c black -o green -i black -I green
n -t 20 -s 1 -S COLOR -c black -o green -i black -I green
n -t 20 -s 2 -S COLOR -c black -o black -i black -I black
n -t 20 -s 1 -S COLOR -c green -o black -i green -I black
n -t 20 -s 0 -S COLOR -c green -o black -i green -I black
n -t 21 -s 0 -S COLOR -c black -o green -i black -I green
n -t 21 -s 1 -S COLOR -c black -o green -i black -I green
n -t 21 -s 2 -S COLOR -c black -o black -i black -I black
n -t 22.000000 -s 3 -x 6.309478 -y 9.831918 -U -1.886210 -V -1.364642 -T 2.801111
n -t 22 -s 0 -S COLOR -c black -o black -i black -I black
n -t 22 -s 1 -S COLOR -c black -o black -i black -I black
n -t 22 -s 2 -S COLOR -c black -o black -i black -I black
n -t 23 -s 0 -S COLOR -c black -o black -i black -I black
n -t 23 -s 1 -S COLOR -c black -o black -i black -I black
n -t 23 -s 2 -S COLOR -c black -o black -i black -I black
n -t 24 -s 0 -S COLOR -c black -o black -i black -I black
n -t 24 -s 1 -S COLOR -c black -o black -i black -I black
n -t 24 -s 2 -S COLOR -c black -o black -i black -I black
n -t 25 -s 0 -S COLOR -c black -o black -i black -I black
n -t 25 -s 1 -S COLOR -c black -o black -i black -I black
n -t 25 -s 2 -S COLOR -c black -o black -i black -I black
n -t 25 -s 1 -S COLOR -c green -o black -i green -I black
n -t 25 -s 0 -S COLOR -c green -o black -i green -I black
n -t 26.000000 -s 3 -x 1.025995 -y 6.009404 -U 0.328407 -V 1.558566 -T 2.069306
n -t 26 -s 0 -S COLOR -c black -o green -i black -I green
n -t 26 -s 1 -S COLOR -c black -o green -i black -I green
n -t 26 -s 2 -S COLOR -c black -o black -i black -I black
n -t 26 -s 1 -S COLOR -c green -o black -i green -I black
n -t 26 -s 0 -S COLOR -c green -o black -i green -I black
n -t 27 -s 0 -S COLOR -c black -o green -i black -I green
n -t 27 -s 1 -S COLOR -c black -o green -i black -I green
n -t 27 -s 2 -S COLOR -c black -o black -i black -I black
n -t 27 -s 1 -S COLOR -c green -o black -i green -I black
n -t 27 -s 0 -S COLOR -c green -o black -i green -I black
n -t 28 -s 0 -S COLOR -c black -o green -i black -I green
n -t 28 -s 1 -S COLOR -c black -o green -i black -I green
n -t 28 -s 2 -S COLOR -c black -o black -i black -I black
n -t 28 -s 1 -S COLOR -c green -o black -i green -I black
n -t 29 -s 0 -S COLOR -c black -o black -i black -I black
n -t 29 -s 1 -S COLOR -c black -o green -i black -I green
n -t 29 -s 2 -S COLOR -c black -o black -i black -I black
n -t 29 -s 1 -S COLOR -c green -o black -i green -I black
n -t 30.000000 -s 3 -x 1.705569 -y 9.234555 -U 1.390297 -V -0.782281 -T 4.002306
n -t 30 -s 0 -S COLOR -c black -o black -i black -I black
n -t 30 -s 1 -S COLOR -c black -o green -i black -I green
n -t 30 -s 2 -S COLOR -c black -o black -i black -I black
n -t 30 -s 1 -S COLOR -c green -o black -i green -I black
n -t 31 -s 0 -S COLOR -c black -o black -i black -I black
n -t 31 -s 1 -S COLOR -c black -o green -i black -I green
n -t 31 -s 2 -S COLOR -c black -o black -i black -I black
n -t 31 -s 1 -S COLOR -c green -o black -i green -I black
n -t 32 -s 0 -S COLOR -c black -o black -i black -I black
n -t 32 -s 1 -S COLOR -c black -o green -i black -I green
n -t 32 -s 2 -S COLOR -c black -o black -i black -I black
n -t 32 -s 1 -S COLOR -c green -o black -i green -I black
n -t 33 -s 0 -S COLOR -c black -o black -i black -I black
n -t 33 -s 1 -S COLOR -c black -o green -i black -I green
n -t 33 -s 2 -S COLOR -c black -o black -i black -I black
n -t 33 -s 0 -S COLOR -c green -o black -i green -I black
n -t 33 -s 1 -S COLOR -c green -o black -i green -I black
n -t 34 -s 0 -S COLOR -c black -o green -i black -I green
n -t 34 -s 1 -S COLOR -c black -o green -i black -I green
n -t 34 -s 2 -S COLOR -c black -o black -i black -I black
n -t 34 -s 0 -S COLOR -c green -o black -i green -I black
n -t 35 -s 0 -S COLOR -c black -o green -i black -I green
n -t 35 -s 1 -S COLOR -c black -o black -i black -I black
n -t 35 -s 2 -S COLOR -c black -o black -i black -I black
n -t 35 -s 0 -S COLOR -c green -o black -i green -I black
n -t 36.000000 -s 3 -x 7.269962 -y 6.103626 -U -2.283731 -V 1.580360 -T 1.594769
n -t 36 -s 0 -S COLOR -c black -o green -i black -I green
n -t 36 -s 1 -S COLOR -c black -o black -i black -I black
n -t 36 -s 2 -S COLOR -c black -o black -i black -I black
n -t 36 -s 0 -S COLOR -c green -o black -i green -I black
n -t 37 -s 0 -S COLOR -c black -o green -i black -I green
n -t 37 -s 1 -S COLOR -c black -o black -i black -I black
n -t 37 -s 2 -S COLOR -c black -o black -i black -I black
n -t 37 -s 0 -S COLOR -c green -o black -i green -I black
n -t 38 -s 0 -S COLOR -c black -o green -i black -I green
n -t 38 -s 1 -S COLOR -c black -o black -i black -I black
n -t 38 -s 2 -S COLOR -c black -o black -i black -I black
n -t 38 -s 0 -S COLOR -c green -o black -i green -I black
n -t 39.000000 -s 3 -x 3.627939 -y 8.623935 -U 0.493187 -V -0.660304 -T 5.857070
n -t 39 -s 0 -S COLOR -c black -o green -i black -I green
n -t 39 -s 1 -S COLOR -c black -o black -i black -I black
n -t 39 -s 2 -S COLOR -c black -o black -i black -I black
n -t 39 -s 1 -S COLOR -c green -o black -i green -I black
n -t 39 -s 0 -S COLOR -c green -o black -i green -I black
n -t 40 -s 0 -S COLOR -c black -o green -i black -I green
n -t 40 -s 1 -S COLOR -c black -o green -i black -I green
n -t 40 -s 2 -S COLOR -c black -o black -i black -I black
n -t 40 -s 1 -S COLOR -c green -o black -i green -I black
n -t 40 -s 0 -S COLOR -c green -o black -i green -I black
n -t 41 -s 0 -S COLOR -c black -o green -i black -I green
n -t 41 -s 1 -S COLOR -c black -o green -i black -I green
n -t 41 -s 2 -S COLOR -c black -o black -i black -I black
n -t 41 -s 0 -S COLOR -c green -o black -i green -I black
n -t 41 -s 1 -S COLOR -c green -o black -i green -I black
n -t 42 -s 0 -S COLOR -c black -o green -i black -I green
n -t 42 -s 1 -S COLOR -c black -o green -i black -I green
n -t 42 -s 2 -S COLOR -c black -o black -i black -I black
n -t 42 -s 0 -S COLOR -c green -o black -i green -I black
n -t 42 -s 1 -S COLOR -c green -o black -i green -I black
n -t 43 -s 0 -S COLOR -c black -o green -i black -I green
n -t 43 -s 1 -S COLOR -c black -o green -i black -I green
n -t 43 -s 2 -S COLOR -c black -o black -i black -I black
n -t 43 -s 0 -S COLOR -c green -o black -i green -I black
n -t 43 -s 1 -S COLOR -c green -o black -i green -I black
n -t 44 -s 0 -S COLOR -c black -o green -i black -I green
n -t 44 -s 1 -S COLOR -c black -o green -i black -I green
n -t 44 -s 2 -S COLOR -c black -o black -i black -I black
n -t 44 -s 0 -S COLOR -c green -o black -i green -I black
n -t 45 -s 0 -S COLOR -c black -o green -i black -I green
n -t 45 -s 1 -S COLOR -c black -o black -i black -I black
n -t 45 -s 2 -S COLOR -c black -o black -i black -I black
n -t 45 -s 0 -S COLOR -c green -o black -i green -I black
n -t 45 -s 2 -S COLOR -c green -o black -i green -I black
n -t 46 -s 0 -S COLOR -c black -o green -i black -I green
n -t 46 -s 1 -S COLOR -c black -o black -i black -I black
n -t 46 -s 2 -S COLOR -c black -o green -i black -I green
n -t 46 -s 0 -S COLOR -c green -o black -i green -I black
n -t 46 -s 2 -S COLOR -c green -o black -i green -I black
n -t 47.000000 -s 3 -x 6.516568 -y 4.756487 -U -0.912199 -V 0.316547 -T 6.698645
n -t 47 -s 0 -S COLOR -c black -o green -i black -I green
n -t 47 -s 1 -S COLOR -c black -o black -i black -I black
n -t 47 -s 2 -S COLOR -c black -o green -i black -I green
n -t 47 -s 0 -S COLOR -c green -o black -i green -I black
n -t 47 -s 2 -S COLOR -c green -o black -i green -I black
n -t 48 -s 0 -S COLOR -c black -o green -i black -I green
n -t 48 -s 1 -S COLOR -c black -o black -i black -I black
n -t 48 -s 2 -S COLOR -c black -o green -i black -I green
n -t 48 -s 0 -S COLOR -c green -o black -i green -I black
n -t 48 -s 2 -S COLOR -c green -o black -i green -I black
n -t 49 -s 0 -S COLOR -c black -o green -i black -I green
n -t 49 -s 1 -S COLOR -c black -o black -i black -I black
n -t 49 -s 2 -S COLOR -c black -o green -i black -I green
n -t 49 -s 0 -S COLOR -c green -o black -i green -I black
n -t 49 -s 2 -S COLOR -c green -o black -i green -I black
n -t 50 -s 0 -S COLOR -c black -o green -i black -I green
n -t 50 -s 1 -S COLOR -c black -o black -i black -I black
n -t 50 -s 2 -S COLOR -c black -o green -i black -I green
n -t 50 -s 0 -S COLOR -c green -o black -i green -I black
n -t 50 -s 1 -S COLOR -c green -o black -i green -I black
n -t 51 -s 0 -S COLOR -c black -o green -i black -I green
n -t 51 -s 1 -S COLOR -c black -o green -i black -I green
n -t 51 -s 2 -S COLOR -c black -o black -i black -I black
n -t 51 -s 1 -S COLOR -c green -o black -i green -I black
n -t 51 -s 0 -S COLOR -c green -o black -i green -I black
n -t 52 -s 0 -S COLOR -c black -o green -i black -I green
n -t 52 -s 1 -S COLOR -c black -o green -i black -I green
n -t 52 -s 2 -S COLOR -c black -o black -i black -I black
n -t 52 -s 1 -S COLOR -c green -o black -i green -I black
n -t 52 -s 0 -S COLOR -c green -o black -i green -I black
n -t 53 -s 0 -S COLOR -c black -o green -i black -I green
n -t 53 -s 1 -S COLOR -c black -o green -i black -I green
n -t 53 -s 2 -S COLOR -c black -o black -i black -I black
n -t 53 -s 1 -S COLOR -c green -o black -i green -I black
n -t 53 -s 0 -S COLOR -c green -o black -i green -I black
n -t 54 -s 0 -S COLOR -c black -o green -i black -I green
n -t 54 -s 1 -S COLOR -c black -o green -i black -I green
n -t 54 -s 2 -S COLOR -c black -o black -i black -I black
n -t 54 -s 1 -S COLOR -c green -o black -i green -I black
n -t 54 -s 0 -S COLOR -c green -o black -i green -I black
n -t 55 -s 0 -S COLOR -c black -o green -i black -I green
n -t 55 -s 1 -S COLOR -c black -o green -i black -I green
n -t 55 -s 2 -S COLOR -c black -o black -i black -I black
n -t 55 -s 1 -S COLOR -c green -o black -i green -I black
n -t 55 -s 0 -S COLOR -c green -o black -i green -I black
n -t 56.000000 -s 3 -x 0.406069 -y 6.876925 -U 1.180844 -V -0.622337 -T 3.923241
n -t 56 -s 0 -S COLOR -c black -o green -i black -I green
n -t 56 -s 1 -S COLOR -c black -o green -i black -I green
n -t 56 -s 2 -S COLOR -c black -o black -i black -I black
n -t 56 -s 1 -S COLOR -c green -o black -i green -I black
n -t 56 -s 0 -S COLOR -c green -o black -i green -I black
n -t 57 -s 0 -S COLOR -c black -o green -i black -I green
n -t 57 -s 1 -S COLOR -c black -o green -i black -I green
n -t 57 -s 2 -S COLOR -c black -o black -i black -I black
n -t 57 -s 1 -S COLOR -c green -o black -i green -I black
n -t 57 -s 0 -S COLOR -c green -o black -i green -I black
n -t 58 -s 0 -S COLOR -c black -o green -i black -I green
n -t 58 -s 1 -S COLOR -c black -o green -i black -I green
n -t 58 -s 2 -S COLOR -c black -o black -i black -I black
n -t 58 -s 1 -S COLOR -c green -o black -i green -I black
n -t 58 -s 0 -S COLOR -c green -o black -i green -I black
n -t 59 -s 0 -S COLOR -c black -o green -i black -I green
n -t 59 -s 1 -S COLOR -c black -o green -i black -I green
n -t 59 -s 2 -S COLOR -c black -o black -i black -I black
n -t 59 -s 0 -S COLOR -c green -o black -i green -I black
n -t 59 -s 1 -S COLOR -c green -o black -i green -I black
n -t 60 -s 0 -S COLOR -c black -o green -i black -I green
n -t 60 -s 1 -S COLOR -c black -o green -i black -I green
n -t 60 -s 2 -S COLOR -c black -o black -i black -I black
n -t 60 -s 0 -S COLOR -c green -o black -i green -I black
n -t 60 -s 2 -S COLOR -c green -o black -i green -I black
n -t 61.000000 -s 3 -x 5.038807 -y 4.435348 -U 0.934547 -V 0.160160 -T 2.243324
n -t 61 -s 0 -S COLOR -c black -o green -i black -I green
n -t 61 -s 1 -S COLOR -c black -o black -i black -I black
n -t 61 -s 2 -S COLOR -c black -o green -i black -I green
n -t 61 -s 0 -S COLOR -c green -o black -i green -I black
n -t 61 -s 2 -S COLOR -c green -o black -i green -I black
n -t 62 -s 0 -S COLOR -c black -o green -i black -I green
n -t 62 -s 1 -S COLOR -c black -o black -i black -I black
n -t 62 -s 2 -S COLOR -c black -o green -i black -I green
n -t 62 -s 0 -S COLOR -c green -o black -i green -I black
n -t 62 -s 2 -S COLOR -c green -o black -i green -I black
n -t 63 -s 0 -S COLOR -c black -o green -i black -I green
n -t 63 -s 1 -S COLOR -c black -o black -i black -I black
n -t 63 -s 2 -S COLOR -c black -o green -i black -I green
n -t 63 -s 0 -S COLOR -c green -o black -i green -I black
n -t 63 -s 2 -S COLOR -c green -o black -i green -I black
n -t 64 -s 0 -S COLOR -c black -o green -i black -I green
n -t 64 -s 1 -S COLOR -c black -o black -i black -I black
n -t 64 -s 2 -S COLOR -c black -o green -i black -I green
n -t 64 -s 0 -S COLOR -c green -o black -i green -I black
n -t 64 -s 2 -S COLOR -c green -o black -i green -I black
n -t 65.000000 -s 3 -x 7.135299 -y 4.794639 -U -0.774362 -V -0.776599 -T 2.270986
n -t 65 -s 0 -S COLOR -c black -o green -i black -I green
n -t 65 -s 1 -S COLOR -c black -o black -i black -I black
n -t 65 -s 2 -S COLOR -c black -o green -i black -I green
n -t 65 -s 0 -S COLOR -c green -o black -i green -I black
n -t 65 -s 2 -S COLOR -c green -o black -i green -I black
n -t 66 -s 0 -S COLOR -c black -o green -i black -I green
n -t 66 -s 1 -S COLOR -c black -o black -i black -I black
n -t 66 -s 2 -S COLOR -c black -o green -i black -I green
n -t 66 -s 0 -S COLOR -c green -o black -i green -I black
n -t 66 -s 2 -S COLOR -c green -o black -i green -I black
n -t 67 -s 0 -S COLOR -c black -o green -i black -I green
n -t 67 -s 1 -S COLOR -c black -o black -i black -I black
n -t 67 -s 2 -S COLOR -c black -o green -i black -I green
n -t 67 -s 0 -S COLOR -c green -o black -i green -I black
n -t 67 -s 2 -S COLOR -c green -o black -i green -I black
n -t 68 -s 0 -S COLOR -c black -o green -i black -I green
n -t 68 -s 1 -S COLOR -c black -o black -i black -I black
n -t 68 -s 2 -S COLOR -c black -o green -i black -I green
n -t 68 -s 0 -S COLOR -c green -o black -i green -I black
n -t 68 -s 2 -S COLOR -c green -o black -i green -I black
n -t 69.000000 -s 3 -x 5.376734 -y 3.030994 -U -1.392118 -V 0.622214 -T 2.968182
n -t 69 -s 0 -S COLOR -c black -o green -i black -I green
n -t 69 -s 1 -S COLOR -c black -o black -i black -I black
n -t 69 -s 2 -S COLOR -c black -o green -i black -I green
n -t 69 -s 0 -S COLOR -c green -o black -i green -I black
n -t 69 -s 2 -S COLOR -c green -o black -i green -I black
n -t 70 -s 0 -S COLOR -c black -o green -i black -I green
n -t 70 -s 1 -S COLOR -c black -o black -i black -I black
n -t 70 -s 2 -S COLOR -c black -o green -i black -I green
n -t 70 -s 0 -S COLOR -c green -o black -i green -I black
n -t 70 -s 2 -S COLOR -c green -o black -i green -I black
n -t 71 -s 0 -S COLOR -c black -o green -i black -I green
n -t 71 -s 1 -S COLOR -c black -o black -i black -I black
n -t 71 -s 2 -S COLOR -c black -o green -i black -I green
n -t 71 -s 0 -S COLOR -c green -o black -i green -I black
n -t 71 -s 2 -S COLOR -c green -o black -i green -I black
n -t 72 -s 0 -S COLOR -c black -o green -i black -I green
n -t 72 -s 1 -S COLOR -c black -o black -i black -I black
n -t 72 -s 2 -S COLOR -c black -o green -i black -I green
n -t 72 -s 1 -S COLOR -c green -o black -i green -I black
n -t 72 -s 0 -S COLOR -c green -o black -i green -I black
n -t 73.000000 -s 3 -x 1.244674 -y 4.877837 -U 1.308727 -V -0.387427 -T 3.381400
n -t 73 -s 0 -S COLOR -c black -o green -i black -I green
n -t 73 -s 1 -S COLOR -c black -o green -i black -I green
n -t 73 -s 2 -S COLOR -c black -o black -i black -I black
n -t 73 -s 1 -S COLOR -c green -o black -i green -I black
n -t 73 -s 0 -S COLOR -c green -o black -i green -I black
n -t 74 -s 0 -S COLOR -c black -o green -i black -I green
n -t 74 -s 1 -S COLOR -c black -o green -i black -I green
n -t 74 -s 2 -S COLOR -c black -o black -i black -I black
n -t 74 -s 0 -S COLOR -c green -o black -i green -I black
n -t 74 -s 1 -S COLOR -c green -o black -i green -I black
n -t 75 -s 0 -S COLOR -c black -o green -i black -I green
n -t 75 -s 1 -S COLOR -c black -o green -i black -I green
n -t 75 -s 2 -S COLOR -c black -o black -i black -I black
n -t 75 -s 0 -S COLOR -c green -o black -i green -I black
n -t 75 -s 2 -S COLOR -c green -o black -i green -I black
n -t 76 -s 0 -S COLOR -c black -o green -i black -I green
n -t 76 -s 1 -S COLOR -c black -o black -i black -I black
n -t 76 -s 2 -S COLOR -c black -o green -i black -I green
n -t 76 -s 0 -S COLOR -c green -o black -i green -I black
n -t 76 -s 2 -S COLOR -c green -o black -i green -I black
n -t 77 -s 0 -S COLOR -c black -o green -i black -I green
n -t 77 -s 1 -S COLOR -c black -o black -i black -I black
n -t 77 -s 2 -S COLOR -c black -o green -i black -I green
n -t 77 -s 0 -S COLOR -c green -o black -i green -I black
n -t 77 -s 2 -S COLOR -c green -o black -i green -I black
n -t 78.000000 -s 3 -x 5.670005 -y 3.567791 -U 0.959508 -V 0.710523 -T 4.374022
n -t 78 -s 0 -S COLOR -c black -o green -i black -I green
n -t 78 -s 1 -S COLOR -c black -o black -i black -I black
n -t 78 -s 2 -S COLOR -c black -o green -i black -I green
n -t 78 -s 0 -S COLOR -c green -o black -i green -I black
n -t 78 -s 2 -S COLOR -c green -o black -i green -I black
n -t 79 -s 0 -S COLOR -c black -o green -i black -I green
n -t 79 -s 1 -S COLOR -c black -o black -i black -I black
n -t 79 -s 2 -S COLOR -c black -o green -i black -I green
n -t 79 -s 0 -S COLOR -c green -o black -i green -I black
n -t 79 -s 2 -S COLOR -c green -o black -i green -I black
n -t 80 -s 0 -S COLOR -c black -o green -i black -I green
n -t 80 -s 1 -S COLOR -c black -o black -i black -I black
n -t 80 -s 2 -S COLOR -c black -o green -i black -I green
n -t 80 -s 0 -S COLOR -c green -o black -i green -I black
n -t 80 -s 2 -S COLOR -c green -o black -i green -I black
n -t 81 -s 0 -S COLOR -c black -o green -i black -I green
n -t 81 -s 1 -S COLOR -c black -o black -i black -I black
n -t 81 -s 2 -S COLOR -c black -o green -i black -I green
n -t 81 -s 0 -S COLOR -c green -o black -i green -I black
n -t 82 -s 0 -S COLOR -c black -o green -i black -I green
n -t 82 -s 1 -S COLOR -c black -o black -i black -I black
n -t 82 -s 2 -S COLOR -c black -o black -i black -I black
n -t 83 -s 0 -S COLOR -c black -o black -i black -I black
n -t 83 -s 1 -S COLOR -c black -o black -i black -I black
n -t 83 -s 2 -S COLOR -c black -o black -i black -I black
n -t 84.000000 -s 3 -x 9.866912 -y 6.675634 -U -1.601800 -V 1.485103 -T 1.638201
n -t 84 -s 0 -S COLOR -c black -o black -i black -I black
n -t 84 -s 1 -S COLOR -c black -o black -i black -I black
n -t 84 -s 2 -S COLOR -c black -o black -i black -I black
n -t 85 -s 0 -S COLOR -c black -o black -i black -I black
n -t 85 -s 1 -S COLOR -c black -o black -i black -I black
n -t 85 -s 2 -S COLOR -c black -o black -i black -I black
n -t 86 -s 0 -S COLOR -c black -o black -i black -I black
n -t 86 -s 1 -S COLOR -c black -o black -i black -I black
n -t 86 -s 2 -S COLOR -c black -o black -i black -I black
n -t 87.000000 -s 3 -x 7.242843 -y 9.108531 -U -0.936761 -V -1.155348 -T 6.333089
n -t 87 -s 0 -S COLOR -c black -o black -i black -I black
n -t 87 -s 1 -S COLOR -c black -o black -i black -I black
n -t 87 -s 2 -S COLOR -c black -o black -i black -I black
n -t 88 -s 0 -S COLOR -c black -o black -i black -I black
n -t 88 -s 1 -S COLOR -c black -o black -i black -I black
n -t 88 -s 2 -S COLOR -c black -o black -i black -I black
n -t 89 -s 0 -S COLOR -c black -o black -i black -I black
n -t 89 -s 1 -S COLOR -c black -o black -i black -I black
n -t 89 -s 2 -S COLOR -c black -o black -i black -I black
n -t 90 -s 0 -S COLOR -c black -o black -i black -I black
n -t 90 -s 1 -S COLOR -c black -o black -i black -I black
n -t 90 -s 2 -S COLOR -c black -o black -i black -I black
n -t 90 -s 0 -S COLOR -c green -o black -i green -I black
n -t 91 -s 0 -S COLOR -c black -o green -i black -I green
n -t 91 -s 1 -S COLOR -c black -o black -i black -I black
n -t 91 -s 2 -S COLOR -c black -o black -i black -I black
n -t 91 -s 0 -S COLOR -c green -o black -i green -I black
n -t 91 -s 1 -S COLOR -c green -o black -i green -I black
n -t 92 -s 0 -S COLOR -c black -o green -i black -I green
n -t 92 -s 1 -S COLOR -c black -o green -i black -I green
n -t 92 -s 2 -S COLOR -c black -o black -i black -I black
n -t 92 -s 0 -S COLOR -c green -o black -i green -I black
n -t 92 -s 2 -S COLOR -c green -o black -i green -I black
n -t 93 -s 0 -S COLOR -c black -o green -i black -I green
n -t 93 -s 1 -S COLOR -c black -o black -i black -I black
n -t 93 -s 2 -S COLOR -c black -o green -i black -I green
n -t 93 -s 2 -S COLOR -c green -o black -i green -I black
n -t 93 -s 0 -S COLOR -c green -o black -i green -I black
n -t 94 -s 0 -S COLOR -c black -o green -i black -I green
n -t 94 -s 1 -S COLOR -c black -o black -i black -I black
n -t 94 -s 2 -S COLOR -c black -o green -i black -I green
n -t 94 -s 2 -S COLOR -c green -o black -i green -I black
n -t 94 -s 0 -S COLOR -c green -o black -i green -I black
n -t 95 -s 0 -S COLOR -c black -o green -i black -I green
n -t 95 -s 1 -S COLOR -c black -o black -i black -I black
n -t 95 -s 2 -S COLOR -c black -o green -i black -I green
n -t 95 -s 2 -S COLOR -c green -o black -i green -I black
n -t 95 -s 0 -S COLOR -c green -o black -i green -I black
n -t 96.000000 -s 3 -x 1.310254 -y 1.791609 -U 1.623419 -V 0.381547 -T 3.683946
n -t 96 -s 0 -S COLOR -c black -o green -i black -I green
n -t 96 -s 1 -S COLOR -c black -o black -i black -I black
n -t 96 -s 2 -S COLOR -c black -o green -i black -I green
n -t 96 -s 2 -S COLOR -c green -o black -i green -I black
n -t 96 -s 0 -S COLOR -c green -o black -i green -I black
n -t 97 -s 0 -S COLOR -c black -o green -i black -I green
n -t 97 -s 1 -S COLOR -c black -o black -i black -I black
n -t 97 -s 2 -S COLOR -c black -o green -i black -I green
n -t 97 -s 2 -S COLOR -c green -o black -i green -I black
n -t 97 -s 0 -S COLOR -c green -o black -i green -I black
n -t 98 -s 0 -S COLOR -c black -o green -i black -I green
n -t 98 -s 1 -S COLOR -c black -o black -i black -I black
n -t 98 -s 2 -S COLOR -c black -o green -i black -I green
n -t 98 -s 2 -S COLOR -c green -o black -i green -I black
n -t 98 -s 0 -S COLOR -c green -o black -i green -I black
n -t 99 -s 0 -S COLOR -c black -o green -i black -I green
n -t 99 -s 1 -S COLOR -c black -o black -i black -I black
n -t 99 -s 2 -S COLOR -c black -o green -i black -I green
n -t 99 -s 0 -S COLOR -c green -o black -i green -I black
n -t 99 -s 2 -S COLOR -c green -o black -i green -I black
