M 0.00000 300 (63.61, 67.05, 0.00), (28.70, 32.77), 1.65
M 40.00000 300 (28.70, 32.77, 0.00), (37.52, 69.13), 0.72
D 60.549405867 _294_ IFQ  --- 7389 message 3284 [0 ffffffff 126 800] ------- [294:255 -1:255 32 0] 
D 60.578027148 _294_ IFQ  --- 7406 message 3284 [0 ffffffff 126 800] ------- [294:255 -1:255 32 0] 
D 60.635103659 _294_ IFQ  --- 7422 message 3272 [0 ffffffff 126 800] ------- [294:255 -1:255 32 0] 
D 61.021052120 _294_ IFQ  --- 7436 message 3272 [0 ffffffff 126 800] ------- [294:255 -1:255 32 0] 
D 61.026077852 _294_ IFQ  --- 7434 message 3272 [0 ffffffff 126 800] ------- [294:255 -1:255 32 0] 
D 61.142521129 _294_ IFQ  --- 7451 message 3272 [0 ffffffff 126 800] ------- [294:255 -1:255 32 0] 
D 61.175557724 _294_ IFQ  --- 7455 message 3272 [0 ffffffff 126 800] ------- [294:255 -1:255 32 0] 
D 61.205584568 _294_ IFQ  --- 7461 message 3272 [0 ffffffff 126 800] ------- [294:255 -1:255 32 0] 
D 61.235181965 _294_ IFQ  --- 7468 message 3272 [0 ffffffff 126 800] ------- [294:255 -1:255 32 0] 
D 61.326477235 _294_ IFQ  --- 7474 message 3272 [0 ffffffff 126 800] ------- [294:255 -1:255 32 0] 
D 61.330511607 _204_ IFQ  --- 7459 message 3308 [0 ffffffff cc 800] ------- [204:255 -1:255 32 0] 
D 61.441167860 _294_ IFQ  --- 7488 message 3284 [0 ffffffff 126 800] ------- [294:255 -1:255 32 0] 
D 61.448933888 _204_ IFQ  --- 7494 message 3320 [0 ffffffff cc 800] ------- [204:255 -1:255 32 0] 
D 61.477585067 _204_ IFQ  --- 7549 message 3332 [0 ffffffff cc 800] ------- [204:255 -1:255 32 0] 
D 61.482403031 _294_ IFQ  --- 7496 message 3284 [0 ffffffff 126 800] ------- [294:255 -1:255 32 0] 
D 61.894911099 _56_ IFQ  --- 7748 message 3308 [0 ffffffff 38 800] ------- [56:255 -1:255 32 0] 
D 62.072998399 _56_ IFQ  --- 7758 message 3308 [0 ffffffff 38 800] ------- [56:255 -1:255 32 0] 
D 62.159559537 _56_ IFQ  --- 7790 message 3320 [0 ffffffff 38 800] ------- [56:255 -1:255 32 0] 
D 62.193554995 _56_ IFQ  --- 7786 message 3320 [0 ffffffff 38 800] ------- [56:255 -1:255 32 0] 
D 62.194352713 _204_ IFQ  --- 7747 message 3344 [0 ffffffff cc 800] ------- [204:255 -1:255 32 0] 
D 62.336116407 _195_ IFQ  --- 7759 message 3284 [0 ffffffff c3 800] ------- [195:255 -1:255 32 0] 
D 62.425073706 _204_ IFQ  --- 7760 message 3344 [0 ffffffff cc 800] ------- [204:255 -1:255 32 0] 
D 62.638615838 _204_ IFQ  --- 7763 message 3332 [0 ffffffff cc 800] ------- [204:255 -1:255 32 0] 
D 62.662515321 _195_ IFQ  --- 7784 message 3296 [0 ffffffff c3 800] ------- [195:255 -1:255 32 0] 
D 62.662560841 _204_ IFQ  --- 7785 message 3356 [0 ffffffff cc 800] ------- [204:255 -1:255 32 0] 
D 62.693802168 _56_ IFQ  --- 7806 message 3332 [0 ffffffff 38 800] ------- [56:255 -1:255 32 0] 
D 62.804186765 _56_ IFQ  --- 7821 message 3332 [0 ffffffff 38 800] ------- [56:255 -1:255 32 0] 
D 62.806420448 _195_ IFQ  --- 7793 message 3296 [0 ffffffff c3 800] ------- [195:255 -1:255 32 0] 
D 62.809200179 _204_ IFQ  --- 7808 message 3368 [0 ffffffff cc 800] ------- [204:255 -1:255 32 0] 
D 62.851786642 _204_ IFQ  --- 7819 message 3368 [0 ffffffff cc 800] ------- [204:255 -1:255 32 0] 
D 62.876706554 _204_ IFQ  --- 7833 message 3368 [0 ffffffff cc 800] ------- [204:255 -1:255 32 0] 
D 62.881166541 _56_ IFQ  --- 7830 message 3332 [0 ffffffff 38 800] ------- [56:255 -1:255 32 0] 
D 62.884122651 _195_ IFQ  --- 7818 message 3308 [0 ffffffff c3 800] ------- [195:255 -1:255 32 0] 
D 62.906483714 _195_ IFQ  --- 7857 message 3308 [0 ffffffff c3 800] ------- [195:255 -1:255 32 0] 
D 62.907336007 _56_ IFQ  --- 7834 message 3332 [0 ffffffff 38 800] ------- [56:255 -1:255 32 0] 
D 62.915043492 _204_ IFQ  --- 7838 message 3368 [0 ffffffff cc 800] ------- [204:255 -1:255 32 0] 
D 62.941857961 _195_ IFQ  --- 7869 message 3308 [0 ffffffff c3 800] ------- [195:255 -1:255 32 0] 
D 62.945950835 _204_ IFQ  --- 7861 message 3368 [0 ffffffff cc 800] ------- [204:255 -1:255 32 0] 
D 62.974374759 _204_ IFQ  --- 7858 message 3368 [0 ffffffff cc 800] ------- [204:255 -1:255 32 0] 
D 62.979163236 _56_ IFQ  --- 7840 message 3332 [0 ffffffff 38 800] ------- [56:255 -1:255 32 0] 
D 62.979998137 _195_ IFQ  --- 7873 message 3308 [0 ffffffff c3 800] ------- [195:255 -1:255 32 0] 
D 62.982532810 _195_ IFQ  --- 7880 message 3296 [0 ffffffff c3 800] ------- [195:255 -1:255 32 0] 
D 63.038640903 _56_ IFQ  --- 7859 message 3332 [0 ffffffff 38 800] ------- [56:255 -1:255 32 0] 
D 63.129053795 _56_ IFQ  --- 7868 message 3332 [0 ffffffff 38 800] ------- [56:255 -1:255 32 0] 
D 63.129979019 _195_ IFQ  --- 7886 message 3296 [0 ffffffff c3 800] ------- [195:255 -1:255 32 0] 
D 63.130893013 _204_ IFQ  --- 7870 message 3368 [0 ffffffff cc 800] ------- [204:255 -1:255 32 0] 
D 63.130920507 _225_ IFQ  --- 8135 message 3296 [0 ffffffff e1 800] ------- [225:255 -1:255 32 0] 
D 63.299292645 _56_ IFQ  --- 7874 message 3332 [0 ffffffff 38 800] ------- [56:255 -1:255 32 0] 
D 63.306045954 _225_ IFQ  --- 8140 message 3296 [0 ffffffff e1 800] ------- [225:255 -1:255 32 0] 
D 63.306056479 _195_ IFQ  --- 7898 message 3296 [0 ffffffff c3 800] ------- [195:255 -1:255 32 0] 
D 63.330985165 _195_ IFQ  --- 7906 message 3296 [0 ffffffff c3 800] ------- [195:255 -1:255 32 0] 
D 63.332076502 _56_ IFQ  --- 7879 message 3320 [0 ffffffff 38 800] ------- [56:255 -1:255 32 0] 
D 63.332094643 _225_ IFQ  --- 8160 message 3296 [0 ffffffff e1 800] ------- [225:255 -1:255 32 0] 
D 63.335389559 _225_ IFQ  --- 8180 message 3296 [0 ffffffff e1 800] ------- [225:255 -1:255 32 0] 
D 63.335811170 _204_ IFQ  --- 7872 message 3368 [0 ffffffff cc 800] ------- [204:255 -1:255 32 0] 
D 63.415999566 _56_ IFQ  --- 7905 message 3320 [0 ffffffff 38 800] ------- [56:255 -1:255 32 0] 
D 63.416540997 _195_ IFQ  --- 7917 message 3296 [0 ffffffff c3 800] ------- [195:255 -1:255 32 0] 
D 63.416622575 _225_ IFQ  --- 8200 message 3296 [0 ffffffff e1 800] ------- [225:255 -1:255 32 0] 
D 63.422455545 _204_ IFQ  --- 7881 message 3356 [0 ffffffff cc 800] ------- [204:255 -1:255 32 0] 
D 63.423774285 _56_ IFQ  --- 7916 message 3320 [0 ffffffff 38 800] ------- [56:255 -1:255 32 0] 
D 63.823246923 _225_ IFQ  --- 8221 message 3296 [0 ffffffff e1 800] ------- [225:255 -1:255 32 0] 
D 63.823723122 _195_ IFQ  --- 7945 message 3296 [0 ffffffff c3 800] ------- [195:255 -1:255 32 0] 
D 63.826617285 _56_ IFQ  --- 7934 message 3320 [0 ffffffff 38 800] ------- [56:255 -1:255 32 0] 
D 63.908022654 _225_ IFQ  --- 8217 message 3296 [0 ffffffff e1 800] ------- [225:255 -1:255 32 0] 
D 63.912587230 _204_ IFQ  --- 7899 message 3356 [0 ffffffff cc 800] ------- [204:255 -1:255 32 0] 
D 63.915438636 _56_ IFQ  --- 7942 message 3320 [0 ffffffff 38 800] ------- [56:255 -1:255 32 0] 
D 63.939649458 _56_ IFQ  --- 8138 message 3320 [0 ffffffff 38 800] ------- [56:255 -1:255 32 0] 
D 63.940344023 _204_ IFQ  --- 7907 message 3356 [0 ffffffff cc 800] ------- [204:255 -1:255 32 0] 
D 63.941371827 _131_ IFQ  --- 8136 message 3308 [0 ffffffff 83 800] ------- [131:255 -1:255 32 0] 
D 63.941689617 _195_ IFQ  --- 8162 message 3296 [0 ffffffff c3 800] ------- [195:255 -1:255 32 0] 
D 63.944305720 _225_ IFQ  --- 8235 message 3296 [0 ffffffff e1 800] ------- [225:255 -1:255 32 0] 
D 64.002298793 _195_ IFQ  --- 8184 message 3296 [0 ffffffff c3 800] ------- [195:255 -1:255 32 0] 
D 64.088329583 _204_ IFQ  --- 7918 message 3356 [0 ffffffff cc 800] ------- [204:255 -1:255 32 0] 
D 64.088907412 _225_ IFQ  --- 8240 message 3296 [0 ffffffff e1 800] ------- [225:255 -1:255 32 0] 
D 64.090251603 _56_ IFQ  --- 8146 message 3320 [0 ffffffff 38 800] ------- [56:255 -1:255 32 0] 
D 64.091347512 _195_ IFQ  --- 8202 message 3296 [0 ffffffff c3 800] ------- [195:255 -1:255 32 0] 
D 64.092629273 _131_ IFQ  --- 8158 message 3308 [0 ffffffff 83 800] ------- [131:255 -1:255 32 0] 
D 64.153177224 _56_ IFQ  --- 8161 message 3320 [0 ffffffff 38 800] ------- [56:255 -1:255 32 0] 
D 64.176157886 _225_ IFQ  --- 8256 message 3308 [0 ffffffff e1 800] ------- [225:255 -1:255 32 0] 
D 64.176539272 _204_ IFQ  --- 7932 message 3356 [0 ffffffff cc 800] ------- [204:255 -1:255 32 0] 
D 64.177232528 _195_ IFQ  --- 8220 message 3296 [0 ffffffff c3 800] ------- [195:255 -1:255 32 0] 
D 64.177724213 _56_ IFQ  --- 8181 message 3320 [0 ffffffff 38 800] ------- [56:255 -1:255 32 0] 
D 64.264974528 _225_ IFQ  --- 8268 message 3320 [0 ffffffff e1 800] ------- [225:255 -1:255 32 0] 
D 64.265069549 _195_ IFQ  --- 8218 message 3296 [0 ffffffff c3 800] ------- [195:255 -1:255 32 0] 
D 64.266806460 _131_ IFQ  --- 8182 message 3308 [0 ffffffff 83 800] ------- [131:255 -1:255 32 0] 
D 64.328400407 _225_ IFQ  --- 8260 message 3320 [0 ffffffff e1 800] ------- [225:255 -1:255 32 0] 
D 64.381783791 _56_ IFQ  --- 8204 message 3320 [0 ffffffff 38 800] ------- [56:255 -1:255 32 0] 
D 64.381811728 _195_ IFQ  --- 8236 message 3296 [0 ffffffff c3 800] ------- [195:255 -1:255 32 0] 
D 64.383517676 _204_ IFQ  --- 7946 message 3356 [0 ffffffff cc 800] ------- [204:255 -1:255 32 0] 
D 64.411294846 _56_ IFQ  --- 8225 message 3320 [0 ffffffff 38 800] ------- [56:255 -1:255 32 0] 
D 64.411933913 _204_ IFQ  --- 8134 message 3356 [0 ffffffff cc 800] ------- [204:255 -1:255 32 0] 
D 64.415466907 _131_ IFQ  --- 8203 message 3308 [0 ffffffff 83 800] ------- [131:255 -1:255 32 0] 
D 64.415836610 _225_ IFQ  --- 8276 message 3320 [0 ffffffff e1 800] ------- [225:255 -1:255 32 0] 
D 64.416436768 _131_ IFQ  --- 8223 message 3308 [0 ffffffff 83 800] ------- [131:255 -1:255 32 0] 
D 64.416439522 _195_ IFQ  --- 8244 message 3296 [0 ffffffff c3 800] ------- [195:255 -1:255 32 0] 
D 64.480038310 _225_ IFQ  --- 8290 message 3320 [0 ffffffff e1 800] ------- [225:255 -1:255 32 0] 
D 64.622869331 _204_ IFQ  --- 8144 message 3356 [0 ffffffff cc 800] ------- [204:255 -1:255 32 0] 
D 64.623185438 _225_ IFQ  --- 8306 message 3308 [0 ffffffff e1 800] ------- [225:255 -1:255 32 0] 
D 64.624624300 _131_ IFQ  --- 8242 message 3308 [0 ffffffff 83 800] ------- [131:255 -1:255 32 0] 
D 64.628386888 _56_ IFQ  --- 8214 message 3320 [0 ffffffff 38 800] ------- [56:255 -1:255 32 0] 
D 64.791480135 _56_ IFQ  --- 8234 message 3320 [0 ffffffff 38 800] ------- [56:255 -1:255 32 0] 
D 64.797867151 _225_ IFQ  --- 8323 message 3320 [0 ffffffff e1 800] ------- [225:255 -1:255 32 0] 
D 64.798328605 _204_ IFQ  --- 8222 message 3356 [0 ffffffff cc 800] ------- [204:255 -1:255 32 0] 
D 64.883594261 _195_ IFQ  --- 8257 message 3308 [0 ffffffff c3 800] ------- [195:255 -1:255 32 0] 
D 64.887268642 _204_ IFQ  --- 8219 message 3356 [0 ffffffff cc 800] ------- [204:255 -1:255 32 0] 
D 64.888339497 _56_ IFQ  --- 8241 message 3320 [0 ffffffff 38 800] ------- [56:255 -1:255 32 0] 
D 64.893774916 _195_ IFQ  --- 8261 message 3320 [0 ffffffff c3 800] ------- [195:255 -1:255 32 0] 
D 64.912273231 _195_ IFQ  --- 8270 message 3320 [0 ffffffff c3 800] ------- [195:255 -1:255 32 0] 
D 64.912909251 _131_ IFQ  --- 8252 message 3320 [0 ffffffff 83 800] ------- [131:255 -1:255 32 0] 
D 64.913840536 _56_ IFQ  --- 8255 message 3332 [0 ffffffff 38 800] ------- [56:255 -1:255 32 0] 
D 64.914262540 _225_ IFQ  --- 8332 message 3320 [0 ffffffff e1 800] ------- [225:255 -1:255 32 0] 
D 64.914784990 _204_ IFQ  --- 8237 message 3356 [0 ffffffff cc 800] ------- [204:255 -1:255 32 0] 
D 64.916644188 _204_ IFQ  --- 8243 message 3356 [0 ffffffff cc 800] ------- [204:255 -1:255 32 0] 
D 65.152532573 _195_ IFQ  --- 8278 message 3320 [0 ffffffff c3 800] ------- [195:255 -1:255 32 0] 
D 65.153420324 _204_ IFQ  --- 8258 message 3368 [0 ffffffff cc 800] ------- [204:255 -1:255 32 0] 
D 65.498569861 _204_ IFQ  --- 8262 message 3380 [0 ffffffff cc 800] ------- [204:255 -1:255 32 0] 
D 65.503364998 _131_ IFQ  --- 8263 message 3332 [0 ffffffff 83 800] ------- [131:255 -1:255 32 0] 
D 65.647374158 _195_ IFQ  --- 8283 message 3320 [0 ffffffff c3 800] ------- [195:255 -1:255 32 0] 
D 65.649166086 _131_ IFQ  --- 8279 message 3332 [0 ffffffff 83 800] ------- [131:255 -1:255 32 0] 
D 65.706426071 _225_ IFQ  --- 8347 message 3320 [0 ffffffff e1 800] ------- [225:255 -1:255 32 0] 
D 65.710045304 _131_ IFQ  --- 8307 message 3320 [0 ffffffff 83 800] ------- [131:255 -1:255 32 0] 
D 65.710492903 _204_ IFQ  --- 8277 message 3356 [0 ffffffff cc 800] ------- [204:255 -1:255 32 0] 
D 65.710814661 _148_ IFQ  --- 8364 message 3320 [0 ffffffff 94 800] ------- [148:255 -1:255 32 0] 
D 65.735583204 _225_ IFQ  --- 8354 message 3320 [0 ffffffff e1 800] ------- [225:255 -1:255 32 0] 
D 65.737273695 _122_ IFQ  --- 8571 message 3392 [0 ffffffff 7a 800] ------- [122:255 -1:255 32 0] 
D 65.738410424 _195_ IFQ  --- 8301 message 3320 [0 ffffffff c3 800] ------- [195:255 -1:255 32 0] 
D 65.739683748 _225_ IFQ  --- 8568 message 3332 [0 ffffffff e1 800] ------- [225:255 -1:255 32 0] 
D 65.741286217 _131_ IFQ  --- 8326 message 3332 [0 ffffffff 83 800] ------- [131:255 -1:255 32 0] 
D 65.743553339 _204_ IFQ  --- 8292 message 3356 [0 ffffffff cc 800] ------- [204:255 -1:255 32 0] 
D 65.743949542 _56_ IFQ  --- 8265 message 3344 [0 ffffffff 38 800] ------- [56:255 -1:255 32 0] 
D 65.744529562 _148_ IFQ  --- 8567 message 3320 [0 ffffffff 94 800] ------- [148:255 -1:255 32 0] 
D 65.829450940 _122_ IFQ  --- 8587 message 3392 [0 ffffffff 7a 800] ------- [122:255 -1:255 32 0] 
D 65.942891430 _122_ IFQ  --- 8595 message 3392 [0 ffffffff 7a 800] ------- [122:255 -1:255 32 0] 
D 65.944004128 _204_ IFQ  --- 8302 message 3356 [0 ffffffff cc 800] ------- [204:255 -1:255 32 0] 
D 65.944253388 _225_ IFQ  --- 8585 message 3332 [0 ffffffff e1 800] ------- [225:255 -1:255 32 0] 
D 65.946848403 _56_ IFQ  --- 8284 message 3344 [0 ffffffff 38 800] ------- [56:255 -1:255 32 0] 
D 65.950103781 _195_ IFQ  --- 8309 message 3308 [0 ffffffff c3 800] ------- [195:255 -1:255 32 0] 
D 66.031870462 _131_ IFQ  --- 8334 message 3332 [0 ffffffff 83 800] ------- [131:255 -1:255 32 0] 
D 66.234129523 _225_ IFQ  --- 8591 message 3332 [0 ffffffff e1 800] ------- [225:255 -1:255 32 0] 
D 66.239219254 _148_ IFQ  --- 8584 message 3320 [0 ffffffff 94 800] ------- [148:255 -1:255 32 0] 
D 66.467098808 _204_ IFQ  --- 8310 message 3344 [0 ffffffff cc 800] ------- [204:255 -1:255 32 0] 
D 66.468039063 _225_ IFQ  --- 8614 message 3332 [0 ffffffff e1 800] ------- [225:255 -1:255 32 0] 
D 66.472864418 _131_ IFQ  --- 8350 message 3332 [0 ffffffff 83 800] ------- [131:255 -1:255 32 0] 
D 66.499356756 _225_ IFQ  --- 8631 message 3332 [0 ffffffff e1 800] ------- [225:255 -1:255 32 0] 
D 66.500067489 _131_ IFQ  --- 8363 message 3332 [0 ffffffff 83 800] ------- [131:255 -1:255 32 0] 
D 66.502212681 _195_ IFQ  --- 8324 message 3320 [0 ffffffff c3 800] ------- [195:255 -1:255 32 0] 
D 66.502246726 _122_ IFQ  --- 8612 message 3392 [0 ffffffff 7a 800] ------- [122:255 -1:255 32 0] 
D 66.502268377 _148_ IFQ  --- 8590 message 3320 [0 ffffffff 94 800] ------- [148:255 -1:255 32 0] 
D 66.507697837 _204_ IFQ  --- 8325 message 3344 [0 ffffffff cc 800] ------- [204:255 -1:255 32 0] 
D 66.530841508 _195_ IFQ  --- 8335 message 3320 [0 ffffffff c3 800] ------- [195:255 -1:255 32 0] 
D 66.534111409 _122_ IFQ  --- 8635 message 3392 [0 ffffffff 7a 800] ------- [122:255 -1:255 32 0] 
D 66.537632736 _204_ IFQ  --- 8330 message 3344 [0 ffffffff cc 800] ------- [204:255 -1:255 32 0] 
D 66.537682532 _56_ IFQ  --- 8280 message 3344 [0 ffffffff 38 800] ------- [56:255 -1:255 32 0] 
D 66.538954324 _148_ IFQ  --- 8613 message 3320 [0 ffffffff 94 800] ------- [148:255 -1:255 32 0] 
D 66.539154801 _131_ IFQ  --- 8570 message 3344 [0 ffffffff 83 800] ------- [131:255 -1:255 32 0] 
D 66.621847387 _122_ IFQ  --- 8648 message 3392 [0 ffffffff 7a 800] ------- [122:255 -1:255 32 0] 
D 66.623591253 _131_ IFQ  --- 8582 message 3344 [0 ffffffff 83 800] ------- [131:255 -1:255 32 0] 
D 66.625042775 _56_ IFQ  --- 8289 message 3344 [0 ffffffff 38 800] ------- [56:255 -1:255 32 0] 
D 66.626662905 _204_ IFQ  --- 8336 message 3344 [0 ffffffff cc 800] ------- [204:255 -1:255 32 0] 
D 66.626956051 _148_ IFQ  --- 8632 message 3320 [0 ffffffff 94 800] ------- [148:255 -1:255 32 0] 
D 66.627680778 _225_ IFQ  --- 8661 message 3320 [0 ffffffff e1 800] ------- [225:255 -1:255 32 0] 
D 66.628317109 _195_ IFQ  --- 8348 message 3320 [0 ffffffff c3 800] ------- [195:255 -1:255 32 0] 
D 66.968268344 _225_ IFQ  --- 8652 message 3332 [0 ffffffff e1 800] ------- [225:255 -1:255 32 0] 
D 66.969490198 _122_ IFQ  --- 8657 message 3380 [0 ffffffff 7a 800] ------- [122:255 -1:255 32 0] 
D 66.970205446 _204_ IFQ  --- 8349 message 3344 [0 ffffffff cc 800] ------- [204:255 -1:255 32 0] 
D 66.971620852 _148_ IFQ  --- 8650 message 3320 [0 ffffffff 94 800] ------- [148:255 -1:255 32 0] 
D 66.971819546 _131_ IFQ  --- 8593 message 3344 [0 ffffffff 83 800] ------- [131:255 -1:255 32 0] 
D 66.973332639 _56_ IFQ  --- 8308 message 3332 [0 ffffffff 38 800] ------- [56:255 -1:255 32 0] 
D 66.999340330 _204_ IFQ  --- 8369 message 3344 [0 ffffffff cc 800] ------- [204:255 -1:255 32 0] 
D 67.001518916 _56_ IFQ  --- 8340 message 3344 [0 ffffffff 38 800] ------- [56:255 -1:255 32 0] 
D 67.001947309 _225_ IFQ  --- 8671 message 3320 [0 ffffffff e1 800] ------- [225:255 -1:255 32 0] 
D 67.004157313 _122_ IFQ  --- 8677 message 3380 [0 ffffffff 7a 800] ------- [122:255 -1:255 32 0] 
D 67.004384353 _148_ IFQ  --- 8660 message 3308 [0 ffffffff 94 800] ------- [148:255 -1:255 32 0] 
D 67.005670458 _131_ IFQ  --- 8611 message 3344 [0 ffffffff 83 800] ------- [131:255 -1:255 32 0] 
D 67.030573552 _122_ IFQ  --- 8695 message 3380 [0 ffffffff 7a 800] ------- [122:255 -1:255 32 0] 
D 67.031779651 _148_ IFQ  --- 8672 message 3308 [0 ffffffff 94 800] ------- [148:255 -1:255 32 0] 
D 67.032774880 _195_ IFQ  --- 8569 message 3332 [0 ffffffff c3 800] ------- [195:255 -1:255 32 0] 
D 67.034016492 _225_ IFQ  --- 8679 message 3320 [0 ffffffff e1 800] ------- [225:255 -1:255 32 0] 
D 67.036327676 _56_ IFQ  --- 8333 message 3344 [0 ffffffff 38 800] ------- [56:255 -1:255 32 0] 
D 67.038220074 _131_ IFQ  --- 8647 message 3344 [0 ffffffff 83 800] ------- [131:255 -1:255 32 0] 
D 67.039018903 _204_ IFQ  --- 8572 message 3356 [0 ffffffff cc 800] ------- [204:255 -1:255 32 0] 
D 67.062228227 _56_ IFQ  --- 8352 message 3344 [0 ffffffff 38 800] ------- [56:255 -1:255 32 0] 
D 67.062997196 _204_ IFQ  --- 8594 message 3356 [0 ffffffff cc 800] ------- [204:255 -1:255 32 0] 
D 67.069492016 _225_ IFQ  --- 8688 message 3320 [0 ffffffff e1 800] ------- [225:255 -1:255 32 0] 
D 67.070555996 _122_ IFQ  --- 8706 message 3380 [0 ffffffff 7a 800] ------- [122:255 -1:255 32 0] 
D 67.070973970 _195_ IFQ  --- 8588 message 3332 [0 ffffffff c3 800] ------- [195:255 -1:255 32 0] 
D 67.210496400 _148_ IFQ  --- 8689 message 3308 [0 ffffffff 94 800] ------- [148:255 -1:255 32 0] 
D 67.213139913 _195_ IFQ  --- 8592 message 3332 [0 ffffffff c3 800] ------- [195:255 -1:255 32 0] 
D 67.213349986 _131_ IFQ  --- 8656 message 3344 [0 ffffffff 83 800] ------- [131:255 -1:255 32 0] 
D 67.277212328 _131_ IFQ  --- 8675 message 3344 [0 ffffffff 83 800] ------- [131:255 -1:255 32 0] 
D 67.277229030 _148_ IFQ  --- 8705 message 3308 [0 ffffffff 94 800] ------- [148:255 -1:255 32 0] 
D 67.277773404 _204_ IFQ  --- 8589 message 3356 [0 ffffffff cc 800] ------- [204:255 -1:255 32 0] 
D 67.278001139 _148_ IFQ  --- 8713 message 3308 [0 ffffffff 94 800] ------- [148:255 -1:255 32 0] 
D 67.281034006 _122_ IFQ  --- 8717 message 3380 [0 ffffffff 7a 800] ------- [122:255 -1:255 32 0] 
D 67.281674276 _195_ IFQ  --- 8615 message 3332 [0 ffffffff c3 800] ------- [195:255 -1:255 32 0] 
D 67.369371432 _122_ IFQ  --- 8727 message 3380 [0 ffffffff 7a 800] ------- [122:255 -1:255 32 0] 
D 67.573600331 _225_ IFQ  --- 8696 message 3320 [0 ffffffff e1 800] ------- [225:255 -1:255 32 0] 
D 67.713384634 _225_ IFQ  --- 8703 message 3320 [0 ffffffff e1 800] ------- [225:255 -1:255 32 0] 
D 67.715486949 _122_ IFQ  --- 8758 message 3392 [0 ffffffff 7a 800] ------- [122:255 -1:255 32 0] 
D 67.841992213 _225_ IFQ  --- 8710 message 3320 [0 ffffffff e1 800] ------- [225:255 -1:255 32 0] 
D 67.919729937 _56_ IFQ  --- 8573 message 3356 [0 ffffffff 38 800] ------- [56:255 -1:255 32 0] 
D 67.924483964 _225_ IFQ  --- 8740 message 3320 [0 ffffffff e1 800] ------- [225:255 -1:255 32 0] 
D 67.928471168 _204_ IFQ  --- 8616 message 3356 [0 ffffffff cc 800] ------- [204:255 -1:255 32 0] 
D 68.359116949 _122_ IFQ  --- 8772 message 3392 [0 ffffffff 7a 800] ------- [122:255 -1:255 32 0] 
D 68.359568401 _131_ IFQ  --- 8690 message 3344 [0 ffffffff 83 800] ------- [131:255 -1:255 32 0] 
D 68.905017739 _131_ IFQ  --- 8702 message 3344 [0 ffffffff 83 800] ------- [131:255 -1:255 32 0] 
D 76.286103994 _41_ IFQ  --- 12587 message 3428 [0 ffffffff 29 800] ------- [41:255 -1:255 32 0] 
D 76.318848985 _41_ IFQ  --- 12673 message 3440 [0 ffffffff 29 800] ------- [41:255 -1:255 32 0] 
D 76.509040009 _41_ IFQ  --- 12684 message 3428 [0 ffffffff 29 800] ------- [41:255 -1:255 32 0] 
D 76.838386273 _41_ IFQ  --- 12705 message 3428 [0 ffffffff 29 800] ------- [41:255 -1:255 32 0] 
D 76.872584043 _41_ IFQ  --- 12714 message 3428 [0 ffffffff 29 800] ------- [41:255 -1:255 32 0] 
D 77.148654302 _41_ IFQ  --- 12731 message 3428 [0 ffffffff 29 800] ------- [41:255 -1:255 32 0] 
D 77.353169915 _41_ IFQ  --- 12750 message 3428 [0 ffffffff 29 800] ------- [41:255 -1:255 32 0] 
D 77.470495976 _152_ IFQ  --- 11952 message 3488 [0 ffffffff 98 800] ------- [152:255 -1:255 32 0] 
D 77.477538218 _110_ IFQ  --- 12625 message 3464 [0 ffffffff 6e 800] ------- [110:255 -1:255 32 0] 
D 77.480059373 _110_ IFQ  --- 12677 message 3464 [0 ffffffff 6e 800] ------- [110:255 -1:255 32 0] 
D 77.553365734 _110_ IFQ  --- 12683 message 3452 [0 ffffffff 6e 800] ------- [110:255 -1:255 32 0] 
D 77.642271567 _110_ IFQ  --- 12707 message 3452 [0 ffffffff 6e 800] ------- [110:255 -1:255 32 0] 
D 77.657552960 _152_ IFQ  --- 11988 message 3512 [0 ffffffff 98 800] ------- [152:255 -1:255 32 0] 
D 77.659331451 _110_ IFQ  --- 12718 message 3452 [0 ffffffff 6e 800] ------- [110:255 -1:255 32 0] 
D 77.685277647 _65_ IFQ  --- 12732 message 3428 [0 ffffffff 41 800] ------- [65:255 -1:255 32 0] 
D 77.692090034 _110_ IFQ  --- 12733 message 3452 [0 ffffffff 6e 800] ------- [110:255 -1:255 32 0] 
D 77.807542138 _65_ IFQ  --- 12764 message 3428 [0 ffffffff 41 800] ------- [65:255 -1:255 32 0] 
D 77.810543565 _110_ IFQ  --- 12755 message 3452 [0 ffffffff 6e 800] ------- [110:255 -1:255 32 0] 
D 77.811870901 _152_ IFQ  --- 11994 message 3512 [0 ffffffff 98 800] ------- [152:255 -1:255 32 0] 
D 77.836713748 _110_ IFQ  --- 12763 message 3452 [0 ffffffff 6e 800] ------- [110:255 -1:255 32 0] 
D 77.845698680 _152_ IFQ  --- 12001 message 3512 [0 ffffffff 98 800] ------- [152:255 -1:255 32 0] 
D 77.906751060 _152_ IFQ  --- 12006 message 3512 [0 ffffffff 98 800] ------- [152:255 -1:255 32 0] 
D 77.940980390 _110_ IFQ  --- 12770 message 3452 [0 ffffffff 6e 800] ------- [110:255 -1:255 32 0] 
D 78.023981945 _110_ IFQ  --- 12776 message 3452 [0 ffffffff 6e 800] ------- [110:255 -1:255 32 0] 
D 78.031402294 _65_ IFQ  --- 12773 message 3428 [0 ffffffff 41 800] ------- [65:255 -1:255 32 0] 
D 78.084770114 _110_ IFQ  --- 12787 message 3452 [0 ffffffff 6e 800] ------- [110:255 -1:255 32 0] 
D 78.425821808 _152_ IFQ  --- 12046 message 3500 [0 ffffffff 98 800] ------- [152:255 -1:255 32 0] 
D 78.573226217 _110_ IFQ  --- 12809 message 3452 [0 ffffffff 6e 800] ------- [110:255 -1:255 32 0] 
D 78.602909892 _152_ IFQ  --- 12048 message 3500 [0 ffffffff 98 800] ------- [152:255 -1:255 32 0] 
D 78.603624079 _110_ IFQ  --- 12819 message 3452 [0 ffffffff 6e 800] ------- [110:255 -1:255 32 0] 
D 78.666269760 _152_ IFQ  --- 12077 message 3500 [0 ffffffff 98 800] ------- [152:255 -1:255 32 0] 
D 78.691687031 _152_ IFQ  --- 12237 message 3500 [0 ffffffff 98 800] ------- [152:255 -1:255 32 0] 
D 78.694046679 _110_ IFQ  --- 12837 message 3452 [0 ffffffff 6e 800] ------- [110:255 -1:255 32 0] 
D 78.762742271 _110_ IFQ  --- 12855 message 3476 [0 ffffffff 6e 800] ------- [110:255 -1:255 32 0] 
D 78.823185069 _110_ IFQ  --- 13024 message 3488 [0 ffffffff 6e 800] ------- [110:255 -1:255 32 0] 
D 79.413308039 _110_ IFQ  --- 13041 message 3488 [0 ffffffff 6e 800] ------- [110:255 -1:255 32 0] 
D 79.420191122 _152_ IFQ  --- 12241 message 3500 [0 ffffffff 98 800] ------- [152:255 -1:255 32 0] 
D 79.424114553 _110_ IFQ  --- 13120 message 3488 [0 ffffffff 6e 800] ------- [110:255 -1:255 32 0] 
D 79.566909978 _152_ IFQ  --- 12253 message 3500 [0 ffffffff 98 800] ------- [152:255 -1:255 32 0] 
D 79.569584259 _110_ IFQ  --- 13141 message 3476 [0 ffffffff 6e 800] ------- [110:255 -1:255 32 0] 
D 79.598415742 _110_ IFQ  --- 13151 message 3476 [0 ffffffff 6e 800] ------- [110:255 -1:255 32 0] 
D 79.665340699 _110_ IFQ  --- 13153 message 3476 [0 ffffffff 6e 800] ------- [110:255 -1:255 32 0] 
D 79.835908179 _152_ IFQ  --- 12257 message 3500 [0 ffffffff 98 800] ------- [152:255 -1:255 32 0] 
D 79.837165609 _110_ IFQ  --- 13172 message 3464 [0 ffffffff 6e 800] ------- [110:255 -1:255 32 0] 
D 80.011437659 _110_ IFQ  --- 13184 message 3464 [0 ffffffff 6e 800] ------- [110:255 -1:255 32 0] 
D 80.174076776 _152_ IFQ  --- 12351 message 3500 [0 ffffffff 98 800] ------- [152:255 -1:255 32 0] 
D 80.174453164 _110_ IFQ  --- 13372 message 3476 [0 ffffffff 6e 800] ------- [110:255 -1:255 32 0] 
D 80.448731309 _152_ IFQ  --- 12358 message 3500 [0 ffffffff 98 800] ------- [152:255 -1:255 32 0] 
D 80.650373647 _110_ IFQ  --- 13398 message 3476 [0 ffffffff 6e 800] ------- [110:255 -1:255 32 0] 
D 80.767459489 _110_ IFQ  --- 13483 message 3500 [0 ffffffff 6e 800] ------- [110:255 -1:255 32 0] 
D 80.800405539 _110_ IFQ  --- 13493 message 3500 [0 ffffffff 6e 800] ------- [110:255 -1:255 32 0] 
D 81.180682986 _110_ IFQ  --- 13546 message 3476 [0 ffffffff 6e 800] ------- [110:255 -1:255 32 0] 
D 82.926885922 _110_ IFQ  --- 13575 message 3464 [0 ffffffff 6e 800] ------- [110:255 -1:255 32 0] 
D 83.073513627 _110_ IFQ  --- 13595 message 3464 [0 ffffffff 6e 800] ------- [110:255 -1:255 32 0] 
D 83.138627370 _110_ IFQ  --- 13610 message 3464 [0 ffffffff 6e 800] ------- [110:255 -1:255 32 0] 
D 83.492886847 _110_ IFQ  --- 13787 message 3464 [0 ffffffff 6e 800] ------- [110:255 -1:255 32 0] 
D 93.615936442 _89_ IFQ  --- 16942 message 3524 [0 ffffffff 59 800] ------- [89:255 -1:255 32 0] 
D 93.944217032 _89_ IFQ  --- 16957 message 3524 [0 ffffffff 59 800] ------- [89:255 -1:255 32 0] 
D 95.019055650 _89_ IFQ  --- 17058 message 3524 [0 ffffffff 59 800] ------- [89:255 -1:255 32 0] 
D 95.326736229 _89_ IFQ  --- 17069 message 3524 [0 ffffffff 59 800] ------- [89:255 -1:255 32 0] 
D 96.078494612 _89_ IFQ  --- 17160 message 3548 [0 ffffffff 59 800] ------- [89:255 -1:255 32 0] 
D 97.349413492 _144_ IFQ  --- 17010 message 3524 [0 ffffffff 90 800] ------- [144:255 -1:255 32 0] 
D 98.791734502 _133_ IFQ  --- 20205 message 3452 [0 ffffffff 85 800] ------- [133:255 -1:255 32 0] 
D 98.972959755 _244_ IFQ  --- 20316 message 3464 [0 ffffffff f4 800] ------- [244:255 -1:255 32 0] 
D 98.976798805 _75_ IFQ  --- 20638 message 3440 [0 ffffffff 4b 800] ------- [75:255 -1:255 32 0] 
D 99.187291737 _75_ IFQ  --- 20701 message 3452 [0 ffffffff 4b 800] ------- [75:255 -1:255 32 0] 
D 99.189700331 _91_ IFQ  --- 19501 message 3524 [0 ffffffff 5b 800] ------- [91:255 -1:255 32 0] 
D 99.256531153 _133_ IFQ  --- 20411 message 3440 [0 ffffffff 85 800] ------- [133:255 -1:255 32 0] 
D 99.447724696 _75_ IFQ  --- 20743 message 3452 [0 ffffffff 4b 800] ------- [75:255 -1:255 32 0] 
D 99.450802722 _244_ IFQ  --- 20370 message 3464 [0 ffffffff f4 800] ------- [244:255 -1:255 32 0] 
D 99.452613297 _133_ IFQ  --- 20443 message 3440 [0 ffffffff 85 800] ------- [133:255 -1:255 32 0] 
D 99.454560676 _91_ IFQ  --- 19685 message 3524 [0 ffffffff 5b 800] ------- [91:255 -1:255 32 0] 
D 99.714623259 _91_ IFQ  --- 19718 message 3524 [0 ffffffff 5b 800] ------- [91:255 -1:255 32 0] 
D 99.780289556 _91_ IFQ  --- 19784 message 3524 [0 ffffffff 5b 800] ------- [91:255 -1:255 32 0] 
D 99.784354574 _75_ IFQ  --- 20757 message 3452 [0 ffffffff 4b 800] ------- [75:255 -1:255 32 0] 
D 99.784575447 _99_ IFQ  --- 20741 message 3452 [0 ffffffff 63 800] ------- [99:255 -1:255 32 0] 
D 99.786068373 _75_ IFQ  --- 20803 message 3452 [0 ffffffff 4b 800] ------- [75:255 -1:255 32 0] 
D 99.786362970 _133_ IFQ  --- 20463 message 3440 [0 ffffffff 85 800] ------- [133:255 -1:255 32 0] 
D 99.788492018 _91_ IFQ  --- 19824 message 3524 [0 ffffffff 5b 800] ------- [91:255 -1:255 32 0] 
D 99.790146222 _244_ IFQ  --- 20424 message 3464 [0 ffffffff f4 800] ------- [244:255 -1:255 32 0] 
D 99.851425527 _91_ IFQ  --- 19877 message 3524 [0 ffffffff 5b 800] ------- [91:255 -1:255 32 0] 
D 99.854180586 _75_ IFQ  --- 20844 message 3440 [0 ffffffff 4b 800] ------- [75:255 -1:255 32 0] 
D 100.086636014 _99_ IFQ  --- 20758 message 3452 [0 ffffffff 63 800] ------- [99:255 -1:255 32 0] 
D 100.204283947 _91_ IFQ  --- 19939 message 3512 [0 ffffffff 5b 800] ------- [91:255 -1:255 32 0] 
D 100.204921761 _135_ IFQ  --- 21523 message 3488 [0 ffffffff 87 800] ------- [135:255 -1:255 32 0] 
D 100.236030489 _91_ IFQ  --- 19957 message 3512 [0 ffffffff 5b 800] ------- [91:255 -1:255 32 0] 
D 100.236839562 _135_ IFQ  --- 21616 message 3488 [0 ffffffff 87 800] ------- [135:255 -1:255 32 0] 
D 100.237041797 _244_ IFQ  --- 20442 message 3464 [0 ffffffff f4 800] ------- [244:255 -1:255 32 0] 
D 100.244848255 _99_ IFQ  --- 20802 message 3452 [0 ffffffff 63 800] ------- [99:255 -1:255 32 0] 
D 100.251026043 _133_ IFQ  --- 20492 message 3440 [0 ffffffff 85 800] ------- [133:255 -1:255 32 0] 
D 100.332037324 _99_ IFQ  --- 20845 message 3440 [0 ffffffff 63 800] ------- [99:255 -1:255 32 0] 
D 100.334354957 _75_ IFQ  --- 20914 message 3440 [0 ffffffff 4b 800] ------- [75:255 -1:255 32 0] 
D 100.335846889 _135_ IFQ  --- 21653 message 3488 [0 ffffffff 87 800] ------- [135:255 -1:255 32 0] 
D 100.337778467 _135_ IFQ  --- 21727 message 3476 [0 ffffffff 87 800] ------- [135:255 -1:255 32 0] 
D 100.338820974 _47_ IFQ  --- 21256 message 3440 [0 ffffffff 2f 800] ------- [47:255 -1:255 32 0] 
D 100.340305291 _91_ IFQ  --- 19990 message 3512 [0 ffffffff 5b 800] ------- [91:255 -1:255 32 0] 