M 0.00000 300 (60.97, 94.00, 0.00), (92.15, 63.34), 1.59
M 37.00000 300 (92.15, 63.34, 0.00), (1.45, 95.71), 1.25
D 60.946440228 _65_ IFQ  --- 6923 message 3356 [0 ffffffff 41 800] ------- [65:255 -1:255 32 0] 
D 61.099116188 _65_ IFQ  --- 6983 message 3368 [0 ffffffff 41 800] ------- [65:255 -1:255 32 0] 
D 61.158672411 _65_ IFQ  --- 6986 message 3356 [0 ffffffff 41 800] ------- [65:255 -1:255 32 0] 
D 61.201523000 _291_ IFQ  --- 7147 message 3344 [0 ffffffff 123 800] ------- [291:255 -1:255 32 0] 
D 61.231521562 _65_ IFQ  --- 7031 message 3356 [0 ffffffff 41 800] ------- [65:255 -1:255 32 0] 
D 61.231695296 _291_ IFQ  --- 7168 message 3320 [0 ffffffff 123 800] ------- [291:255 -1:255 32 0] 
D 61.263936694 _291_ IFQ  --- 7261 message 3308 [0 ffffffff 123 800] ------- [291:255 -1:255 32 0] 
D 61.264724542 _291_ IFQ  --- 7291 message 3296 [0 ffffffff 123 800] ------- [291:255 -1:255 32 0] 
D 61.333453658 _291_ IFQ  --- 7307 message 3296 [0 ffffffff 123 800] ------- [291:255 -1:255 32 0] 
D 61.768549326 _291_ IFQ  --- 7316 message 3296 [0 ffffffff 123 800] ------- [291:255 -1:255 32 0] 
D 61.793198054 _291_ IFQ  --- 7326 message 3296 [0 ffffffff 123 800] ------- [291:255 -1:255 32 0] 
D 61.825716120 _291_ IFQ  --- 7334 message 3296 [0 ffffffff 123 800] ------- [291:255 -1:255 32 0] 
D 61.945133712 _291_ IFQ  --- 7345 message 3296 [0 ffffffff 123 800] ------- [291:255 -1:255 32 0] 
D 62.147556133 _291_ IFQ  --- 7390 message 3284 [0 ffffffff 123 800] ------- [291:255 -1:255 32 0] 
D 62.179649071 _291_ IFQ  --- 7399 message 3284 [0 ffffffff 123 800] ------- [291:255 -1:255 32 0] 
D 62.180394443 _291_ IFQ  --- 7416 message 3284 [0 ffffffff 123 800] ------- [291:255 -1:255 32 0] 
D 62.213272076 _291_ IFQ  --- 7448 message 3284 [0 ffffffff 123 800] ------- [291:255 -1:255 32 0] 
D 62.238197428 _291_ IFQ  --- 7467 message 3284 [0 ffffffff 123 800] ------- [291:255 -1:255 32 0] 
D 62.268705394 _291_ IFQ  --- 7477 message 3272 [0 ffffffff 123 800] ------- [291:255 -1:255 32 0] 
D 62.307184175 _291_ IFQ  --- 7501 message 3296 [0 ffffffff 123 800] ------- [291:255 -1:255 32 0] 
D 62.338274929 _195_ IFQ  --- 7550 message 3356 [0 ffffffff c3 800] ------- [195:255 -1:255 32 0] 
D 62.340618669 _291_ IFQ  --- 7538 message 3296 [0 ffffffff 123 800] ------- [291:255 -1:255 32 0] 
D 62.348348530 _195_ IFQ  --- 7665 message 3356 [0 ffffffff c3 800] ------- [195:255 -1:255 32 0] 
D 62.348795900 _291_ IFQ  --- 7549 message 3296 [0 ffffffff 123 800] ------- [291:255 -1:255 32 0] 
D 62.439887277 _55_ IFQ  --- 7303 message 3296 [0 ffffffff 37 800] ------- [55:255 -1:255 32 0] 
D 62.439901809 _195_ IFQ  --- 7694 message 3356 [0 ffffffff c3 800] ------- [195:255 -1:255 32 0] 
D 62.577850656 _291_ IFQ  --- 7554 message 3296 [0 ffffffff 123 800] ------- [291:255 -1:255 32 0] 
D 62.583523420 _195_ IFQ  --- 7769 message 3368 [0 ffffffff c3 800] ------- [195:255 -1:255 32 0] 
D 62.587038047 _291_ IFQ  --- 7571 message 3296 [0 ffffffff 123 800] ------- [291:255 -1:255 32 0] 
D 62.587699815 _195_ IFQ  --- 7783 message 3368 [0 ffffffff c3 800] ------- [195:255 -1:255 32 0] 
D 62.610869890 _195_ IFQ  --- 7796 message 3368 [0 ffffffff c3 800] ------- [195:255 -1:255 32 0] 
D 62.611437919 _291_ IFQ  --- 7579 message 3296 [0 ffffffff 123 800] ------- [291:255 -1:255 32 0] 
D 62.615485848 _53_ IFQ  --- 7095 message 3416 [0 ffffffff 35 800] ------- [53:255 -1:255 32 0] 
D 62.644105643 _195_ IFQ  --- 7814 message 3380 [0 ffffffff c3 800] ------- [195:255 -1:255 32 0] 
D 62.649704953 _291_ IFQ  --- 7668 message 3296 [0 ffffffff 123 800] ------- [291:255 -1:255 32 0] 
D 62.651729485 _53_ IFQ  --- 7166 message 3404 [0 ffffffff 35 800] ------- [53:255 -1:255 32 0] 
D 62.653674969 _55_ IFQ  --- 7346 message 3296 [0 ffffffff 37 800] ------- [55:255 -1:255 32 0] 
D 62.661954567 _53_ IFQ  --- 7258 message 3392 [0 ffffffff 35 800] ------- [53:255 -1:255 32 0] 
D 62.712331721 _291_ IFQ  --- 7698 message 3296 [0 ffffffff 123 800] ------- [291:255 -1:255 32 0] 
D 62.712927975 _53_ IFQ  --- 7286 message 3368 [0 ffffffff 35 800] ------- [53:255 -1:255 32 0] 
D 62.715971010 _195_ IFQ  --- 7827 message 3380 [0 ffffffff c3 800] ------- [195:255 -1:255 32 0] 
D 62.748590117 _55_ IFQ  --- 7414 message 3284 [0 ffffffff 37 800] ------- [55:255 -1:255 32 0] 
D 62.749338277 _291_ IFQ  --- 7774 message 3308 [0 ffffffff 123 800] ------- [291:255 -1:255 32 0] 
D 62.752149095 _195_ IFQ  --- 7835 message 3368 [0 ffffffff c3 800] ------- [195:255 -1:255 32 0] 
D 62.775857715 _55_ IFQ  --- 7443 message 3284 [0 ffffffff 37 800] ------- [55:255 -1:255 32 0] 
D 62.781362846 _291_ IFQ  --- 7784 message 3308 [0 ffffffff 123 800] ------- [291:255 -1:255 32 0] 
D 62.785023230 _53_ IFQ  --- 7322 message 3368 [0 ffffffff 35 800] ------- [53:255 -1:255 32 0] 
D 62.785599093 _195_ IFQ  --- 7851 message 3368 [0 ffffffff c3 800] ------- [195:255 -1:255 32 0] 
D 62.894757140 _53_ IFQ  --- 7330 message 3368 [0 ffffffff 35 800] ------- [53:255 -1:255 32 0] 
D 62.895336669 _291_ IFQ  --- 7797 message 3308 [0 ffffffff 123 800] ------- [291:255 -1:255 32 0] 
D 62.896919455 _291_ IFQ  --- 7818 message 3320 [0 ffffffff 123 800] ------- [291:255 -1:255 32 0] 
D 62.902173229 _55_ IFQ  --- 7565 message 3308 [0 ffffffff 37 800] ------- [55:255 -1:255 32 0] 
D 62.904133302 _55_ IFQ  --- 7580 message 3308 [0 ffffffff 37 800] ------- [55:255 -1:255 32 0] 
D 63.014581101 _291_ IFQ  --- 7828 message 3320 [0 ffffffff 123 800] ------- [291:255 -1:255 32 0] 
D 63.018705224 _55_ IFQ  --- 7771 message 3320 [0 ffffffff 37 800] ------- [55:255 -1:255 32 0] 
D 63.105269261 _55_ IFQ  --- 7825 message 3332 [0 ffffffff 37 800] ------- [55:255 -1:255 32 0] 
D 63.105417383 _53_ IFQ  --- 7343 message 3368 [0 ffffffff 35 800] ------- [53:255 -1:255 32 0] 
D 63.140711931 _53_ IFQ  --- 7412 message 3356 [0 ffffffff 35 800] ------- [53:255 -1:255 32 0] 
D 63.142174988 _291_ IFQ  --- 7832 message 3320 [0 ffffffff 123 800] ------- [291:255 -1:255 32 0] 
D 63.147211199 _55_ IFQ  --- 7876 message 3296 [0 ffffffff 37 800] ------- [55:255 -1:255 32 0] 
D 63.173500329 _55_ IFQ  --- 7881 message 3296 [0 ffffffff 37 800] ------- [55:255 -1:255 32 0] 
D 63.176118400 _291_ IFQ  --- 7837 message 3308 [0 ffffffff 123 800] ------- [291:255 -1:255 32 0] 
D 63.177086249 _53_ IFQ  --- 7943 message 140 [0 ffffffff 35 800] ------- [53:255 -1:255 32 0] 
D 63.178438425 _195_ IFQ  --- 7878 message 3356 [0 ffffffff c3 800] ------- [195:255 -1:255 32 0] 
D 63.286204800 _291_ IFQ  --- 7855 message 3296 [0 ffffffff 123 800] ------- [291:255 -1:255 32 0] 
D 63.287915167 _53_ IFQ  --- 8033 message 3392 [0 ffffffff 35 800] ------- [53:255 -1:255 32 0] 
D 63.290610521 _55_ IFQ  --- 7921 message 3296 [0 ffffffff 37 800] ------- [55:255 -1:255 32 0] 
D 63.292860040 _195_ IFQ  --- 7945 message 3368 [0 ffffffff c3 800] ------- [195:255 -1:255 32 0] 
D 63.401598078 _291_ IFQ  --- 7879 message 3284 [0 ffffffff 123 800] ------- [291:255 -1:255 32 0] 
D 63.403573880 _53_ IFQ  --- 8069 message 3404 [0 ffffffff 35 800] ------- [53:255 -1:255 32 0] 
D 63.403828772 _195_ IFQ  --- 8039 message 3368 [0 ffffffff c3 800] ------- [195:255 -1:255 32 0] 
D 63.406191498 _55_ IFQ  --- 7947 message 3296 [0 ffffffff 37 800] ------- [55:255 -1:255 32 0] 
D 63.464111973 _55_ IFQ  --- 8038 message 3296 [0 ffffffff 37 800] ------- [55:255 -1:255 32 0] 
D 63.466740735 _291_ IFQ  --- 7920 message 3284 [0 ffffffff 123 800] ------- [291:255 -1:255 32 0] 
D 63.467042374 _53_ IFQ  --- 8095 message 3404 [0 ffffffff 35 800] ------- [53:255 -1:255 32 0] 
D 63.640518913 _53_ IFQ  --- 8287 message 3404 [0 ffffffff 35 800] ------- [53:255 -1:255 32 0] 
D 63.809428338 _53_ IFQ  --- 8302 message 3404 [0 ffffffff 35 800] ------- [53:255 -1:255 32 0] 
D 63.816792476 _55_ IFQ  --- 8060 message 3308 [0 ffffffff 37 800] ------- [55:255 -1:255 32 0] 
D 63.872682356 _59_ IFQ  --- 8074 message 3320 [0 ffffffff 3b 800] ------- [59:255 -1:255 32 0] 
D 63.873824856 _55_ IFQ  --- 8072 message 3308 [0 ffffffff 37 800] ------- [55:255 -1:255 32 0] 
D 63.933902725 _55_ IFQ  --- 8168 message 3308 [0 ffffffff 37 800] ------- [55:255 -1:255 32 0] 
D 64.019605818 _53_ IFQ  --- 8307 message 3404 [0 ffffffff 35 800] ------- [53:255 -1:255 32 0] 
D 64.021643373 _291_ IFQ  --- 7949 message 3296 [0 ffffffff 123 800] ------- [291:255 -1:255 32 0] 
D 64.022435320 _59_ IFQ  --- 8092 message 3320 [0 ffffffff 3b 800] ------- [59:255 -1:255 32 0] 
D 64.023273427 _55_ IFQ  --- 8178 message 3308 [0 ffffffff 37 800] ------- [55:255 -1:255 32 0] 
D 64.026625081 _291_ IFQ  --- 8034 message 3296 [0 ffffffff 123 800] ------- [291:255 -1:255 32 0] 
D 64.080206673 _53_ IFQ  --- 8315 message 3404 [0 ffffffff 35 800] ------- [53:255 -1:255 32 0] 
D 64.242199695 _291_ IFQ  --- 8042 message 3296 [0 ffffffff 123 800] ------- [291:255 -1:255 32 0] 
D 64.244446881 _53_ IFQ  --- 8325 message 3404 [0 ffffffff 35 800] ------- [53:255 -1:255 32 0] 
D 64.276755789 _53_ IFQ  --- 8345 message 3404 [0 ffffffff 35 800] ------- [53:255 -1:255 32 0] 
D 64.302678235 _53_ IFQ  --- 8356 message 3404 [0 ffffffff 35 800] ------- [53:255 -1:255 32 0] 
D 64.305600029 _291_ IFQ  --- 8064 message 3308 [0 ffffffff 123 800] ------- [291:255 -1:255 32 0] 
D 64.309250130 _59_ IFQ  --- 8116 message 3320 [0 ffffffff 3b 800] ------- [59:255 -1:255 32 0] 
D 64.338473517 _59_ IFQ  --- 8284 message 3320 [0 ffffffff 3b 800] ------- [59:255 -1:255 32 0] 
D 64.339106343 _291_ IFQ  --- 8075 message 3308 [0 ffffffff 123 800] ------- [291:255 -1:255 32 0] 
D 64.340340640 _53_ IFQ  --- 8453 message 3404 [0 ffffffff 35 800] ------- [53:255 -1:255 32 0] 
D 64.370112527 _59_ IFQ  --- 8285 message 3320 [0 ffffffff 3b 800] ------- [59:255 -1:255 32 0] 
D 64.380956067 _53_ IFQ  --- 8482 message 3404 [0 ffffffff 35 800] ------- [53:255 -1:255 32 0] 
D 64.401092958 _55_ IFQ  --- 8208 message 3308 [0 ffffffff 37 800] ------- [55:255 -1:255 32 0] 
D 64.403872386 _66_ IFQ  --- 8174 message 3356 [0 ffffffff 42 800] ------- [66:255 -1:255 32 0] 
D 64.404472553 _59_ IFQ  --- 8300 message 3320 [0 ffffffff 3b 800] ------- [59:255 -1:255 32 0] 
D 64.404475308 _53_ IFQ  --- 8496 message 3404 [0 ffffffff 35 800] ------- [53:255 -1:255 32 0] 
D 64.467936758 _55_ IFQ  --- 8231 message 3308 [0 ffffffff 37 800] ------- [55:255 -1:255 32 0] 
D 64.475134783 _59_ IFQ  --- 8314 message 3320 [0 ffffffff 3b 800] ------- [59:255 -1:255 32 0] 
D 64.475325174 _66_ IFQ  --- 8288 message 3356 [0 ffffffff 42 800] ------- [66:255 -1:255 32 0] 
D 64.476045211 _291_ IFQ  --- 8119 message 3308 [0 ffffffff 123 800] ------- [291:255 -1:255 32 0] 
D 64.527629967 _291_ IFQ  --- 8280 message 3320 [0 ffffffff 123 800] ------- [291:255 -1:255 32 0] 
D 64.557798794 _59_ IFQ  --- 8324 message 3320 [0 ffffffff 3b 800] ------- [59:255 -1:255 32 0] 
D 64.558740298 _66_ IFQ  --- 8281 message 3356 [0 ffffffff 42 800] ------- [66:255 -1:255 32 0] 
D 64.584928084 _291_ IFQ  --- 8292 message 3320 [0 ffffffff 123 800] ------- [291:255 -1:255 32 0] 
D 64.589620268 _53_ IFQ  --- 8518 message 3404 [0 ffffffff 35 800] ------- [53:255 -1:255 32 0] 
D 64.590662002 _66_ IFQ  --- 8303 message 3356 [0 ffffffff 42 800] ------- [66:255 -1:255 32 0] 
D 64.591817491 _59_ IFQ  --- 8344 message 3320 [0 ffffffff 3b 800] ------- [59:255 -1:255 32 0] 
D 64.591822912 _53_ IFQ  --- 8548 message 3404 [0 ffffffff 35 800] ------- [53:255 -1:255 32 0] 
D 64.595000488 _55_ IFQ  --- 8283 message 3308 [0 ffffffff 37 800] ------- [55:255 -1:255 32 0] 
D 64.641171120 _53_ IFQ  --- 8540 message 3404 [0 ffffffff 35 800] ------- [53:255 -1:255 32 0] 
D 64.677551588 _66_ IFQ  --- 8316 message 3356 [0 ffffffff 42 800] ------- [66:255 -1:255 32 0] 
D 64.677693728 _53_ IFQ  --- 8561 message 3404 [0 ffffffff 35 800] ------- [53:255 -1:255 32 0] 
D 64.678270466 _55_ IFQ  --- 8286 message 3308 [0 ffffffff 37 800] ------- [55:255 -1:255 32 0] 
D 64.680594386 _291_ IFQ  --- 8305 message 3320 [0 ffffffff 123 800] ------- [291:255 -1:255 32 0] 
D 64.681278907 _59_ IFQ  --- 8355 message 3320 [0 ffffffff 3b 800] ------- [59:255 -1:255 32 0] 
D 64.874755014 _55_ IFQ  --- 8298 message 3308 [0 ffffffff 37 800] ------- [55:255 -1:255 32 0] 
D 64.875156259 _59_ IFQ  --- 8366 message 3320 [0 ffffffff 3b 800] ------- [59:255 -1:255 32 0] 
D 64.876530716 _66_ IFQ  --- 8454 message 3356 [0 ffffffff 42 800] ------- [66:255 -1:255 32 0] 
D 64.885759398 _291_ IFQ  --- 8318 message 3320 [0 ffffffff 123 800] ------- [291:255 -1:255 32 0] 
D 64.887775677 _59_ IFQ  --- 8451 message 3320 [0 ffffffff 3b 800] ------- [59:255 -1:255 32 0] 
D 64.910877792 _53_ IFQ  --- 8573 message 3392 [0 ffffffff 35 800] ------- [53:255 -1:255 32 0] 
D 64.912880245 _60_ IFQ  --- 8483 message 3344 [0 ffffffff 3c 800] ------- [60:255 -1:255 32 0] 
D 64.915509503 _55_ IFQ  --- 8322 message 3308 [0 ffffffff 37 800] ------- [55:255 -1:255 32 0] 
D 64.917281745 _59_ IFQ  --- 8486 message 3320 [0 ffffffff 3b 800] ------- [59:255 -1:255 32 0] 
D 65.053749608 _55_ IFQ  --- 8332 message 3308 [0 ffffffff 37 800] ------- [55:255 -1:255 32 0] 
D 65.054922515 _66_ IFQ  --- 8495 message 3356 [0 ffffffff 42 800] ------- [66:255 -1:255 32 0] 
D 65.057881234 _60_ IFQ  --- 8498 message 3332 [0 ffffffff 3c 800] ------- [60:255 -1:255 32 0] 
D 65.058497932 _59_ IFQ  --- 8497 message 3308 [0 ffffffff 3b 800] ------- [59:255 -1:255 32 0] 
D 65.059872272 _291_ IFQ  --- 8331 message 3320 [0 ffffffff 123 800] ------- [291:255 -1:255 32 0] 
D 65.199918583 _66_ IFQ  --- 8520 message 3356 [0 ffffffff 42 800] ------- [66:255 -1:255 32 0] 
D 65.202122252 _55_ IFQ  --- 8341 message 3308 [0 ffffffff 37 800] ------- [55:255 -1:255 32 0] 
D 65.202565250 _291_ IFQ  --- 8351 message 3320 [0 ffffffff 123 800] ------- [291:255 -1:255 32 0] 
D 65.203923761 _60_ IFQ  --- 8542 message 3332 [0 ffffffff 3c 800] ------- [60:255 -1:255 32 0] 
D 65.264206673 _66_ IFQ  --- 8539 message 3356 [0 ffffffff 42 800] ------- [66:255 -1:255 32 0] 
D 65.264396419 _291_ IFQ  --- 8359 message 3320 [0 ffffffff 123 800] ------- [291:255 -1:255 32 0] 
D 65.272973980 _53_ IFQ  --- 8634 message 3404 [0 ffffffff 35 800] ------- [53:255 -1:255 32 0] 
D 65.293893343 _55_ IFQ  --- 8343 message 3308 [0 ffffffff 37 800] ------- [55:255 -1:255 32 0] 
D 65.294929544 _60_ IFQ  --- 8549 message 3332 [0 ffffffff 3c 800] ------- [60:255 -1:255 32 0] 
D 65.298477479 _59_ IFQ  --- 8541 message 3308 [0 ffffffff 3b 800] ------- [59:255 -1:255 32 0] 
D 65.300997717 _66_ IFQ  --- 8550 message 3356 [0 ffffffff 42 800] ------- [66:255 -1:255 32 0] 
D 65.301345661 _53_ IFQ  --- 8670 message 3404 [0 ffffffff 35 800] ------- [53:255 -1:255 32 0] 
D 65.301894024 _291_ IFQ  --- 8458 message 3320 [0 ffffffff 123 800] ------- [291:255 -1:255 32 0] 
D 65.406950146 _55_ IFQ  --- 8452 message 3308 [0 ffffffff 37 800] ------- [55:255 -1:255 32 0] 
D 65.407271388 _66_ IFQ  --- 8574 message 3344 [0 ffffffff 42 800] ------- [66:255 -1:255 32 0] 
D 65.408943942 _59_ IFQ  --- 8552 message 3308 [0 ffffffff 3b 800] ------- [59:255 -1:255 32 0] 
D 65.413902815 _291_ IFQ  --- 8480 message 3320 [0 ffffffff 123 800] ------- [291:255 -1:255 32 0] 
D 65.500431653 _60_ IFQ  --- 8563 message 3332 [0 ffffffff 3c 800] ------- [60:255 -1:255 32 0] 
D 65.502251626 _53_ IFQ  --- 8700 message 3404 [0 ffffffff 35 800] ------- [53:255 -1:255 32 0] 
D 65.502774495 _291_ IFQ  --- 8501 message 3308 [0 ffffffff 123 800] ------- [291:255 -1:255 32 0] 
D 65.504794159 _55_ IFQ  --- 8487 message 3308 [0 ffffffff 37 800] ------- [55:255 -1:255 32 0] 
D 65.506062717 _59_ IFQ  --- 8566 message 3308 [0 ffffffff 3b 800] ------- [59:255 -1:255 32 0] 
D 65.562282065 _66_ IFQ  --- 8666 message 3356 [0 ffffffff 42 800] ------- [66:255 -1:255 32 0] 
D 65.562597692 _55_ IFQ  --- 8499 message 3296 [0 ffffffff 37 800] ------- [55:255 -1:255 32 0] 
D 65.564539627 _291_ IFQ  --- 8522 message 3308 [0 ffffffff 123 800] ------- [291:255 -1:255 32 0] 
D 65.566537706 _53_ IFQ  --- 8705 message 3404 [0 ffffffff 35 800] ------- [53:255 -1:255 32 0] 
D 65.566682682 _59_ IFQ  --- 8576 message 3296 [0 ffffffff 3b 800] ------- [59:255 -1:255 32 0] 
D 65.569456494 _60_ IFQ  --- 8572 message 3320 [0 ffffffff 3c 800] ------- [60:255 -1:255 32 0] 
D 65.599678217 _60_ IFQ  --- 8610 message 3320 [0 ffffffff 3c 800] ------- [60:255 -1:255 32 0] 
D 65.601708316 _59_ IFQ  --- 8648 message 3308 [0 ffffffff 3b 800] ------- [59:255 -1:255 32 0] 
D 65.602733750 _291_ IFQ  --- 8530 message 3308 [0 ffffffff 123 800] ------- [291:255 -1:255 32 0] 
D 65.605254466 _66_ IFQ  --- 8689 message 3356 [0 ffffffff 42 800] ------- [66:255 -1:255 32 0] 
D 65.606111131 _55_ IFQ  --- 8519 message 3296 [0 ffffffff 37 800] ------- [55:255 -1:255 32 0] 
D 65.606425044 _53_ IFQ  --- 8746 message 3404 [0 ffffffff 35 800] ------- [53:255 -1:255 32 0] 
D 65.688758378 _59_ IFQ  --- 8668 message 3308 [0 ffffffff 3b 800] ------- [59:255 -1:255 32 0] 
D 65.688895924 _55_ IFQ  --- 8529 message 3296 [0 ffffffff 37 800] ------- [55:255 -1:255 32 0] 
D 65.690611285 _60_ IFQ  --- 8672 message 3332 [0 ffffffff 3c 800] ------- [60:255 -1:255 32 0] 
D 65.692970985 _291_ IFQ  --- 8546 message 3308 [0 ffffffff 123 800] ------- [291:255 -1:255 32 0] 
D 65.775045414 _66_ IFQ  --- 8742 message 3356 [0 ffffffff 42 800] ------- [66:255 -1:255 32 0] 
D 65.826218710 _60_ IFQ  --- 8680 message 3332 [0 ffffffff 3c 800] ------- [60:255 -1:255 32 0] 
D 65.828676025 _291_ IFQ  --- 8560 message 3308 [0 ffffffff 123 800] ------- [291:255 -1:255 32 0] 
D 65.831309149 _55_ IFQ  --- 8543 message 3296 [0 ffffffff 37 800] ------- [55:255 -1:255 32 0] 
D 65.833190821 _66_ IFQ  --- 8749 message 3356 [0 ffffffff 42 800] ------- [66:255 -1:255 32 0] 
D 65.833417213 _53_ IFQ  --- 8765 message 3404 [0 ffffffff 35 800] ------- [53:255 -1:255 32 0] 
D 65.837115189 _60_ IFQ  --- 8698 message 3332 [0 ffffffff 3c 800] ------- [60:255 -1:255 32 0] 
D 65.860377534 _60_ IFQ  --- 8706 message 3332 [0 ffffffff 3c 800] ------- [60:255 -1:255 32 0] 
D 65.860937392 _291_ IFQ  --- 8703 message 3308 [0 ffffffff 123 800] ------- [291:255 -1:255 32 0] 
D 65.862784609 _59_ IFQ  --- 8671 message 3308 [0 ffffffff 3b 800] ------- [59:255 -1:255 32 0] 
D 65.862784907 _66_ IFQ  --- 8760 message 3356 [0 ffffffff 42 800] ------- [66:255 -1:255 32 0] 
D 65.864156562 _53_ IFQ  --- 8779 message 3404 [0 ffffffff 35 800] ------- [53:255 -1:255 32 0] 
D 65.864438820 _55_ IFQ  --- 8551 message 3296 [0 ffffffff 37 800] ------- [55:255 -1:255 32 0] 
D 65.865964402 _53_ IFQ  --- 8905 message 3416 [0 ffffffff 35 800] ------- [53:255 -1:255 32 0] 
D 65.870119922 _66_ IFQ  --- 8766 message 3356 [0 ffffffff 42 800] ------- [66:255 -1:255 32 0] 
D 65.922045964 _53_ IFQ  --- 8912 message 3416 [0 ffffffff 35 800] ------- [53:255 -1:255 32 0] 
D 65.946342134 _59_ IFQ  --- 8701 message 3308 [0 ffffffff 3b 800] ------- [59:255 -1:255 32 0] 
D 65.949384604 _53_ IFQ  --- 8926 message 3416 [0 ffffffff 35 800] ------- [53:255 -1:255 32 0] 
D 65.950722707 _66_ IFQ  --- 8773 message 3356 [0 ffffffff 42 800] ------- [66:255 -1:255 32 0] 
D 65.954174385 _55_ IFQ  --- 8667 message 3296 [0 ffffffff 37 800] ------- [55:255 -1:255 32 0] 
D 66.318016639 _60_ IFQ  --- 8748 message 3332 [0 ffffffff 3c 800] ------- [60:255 -1:255 32 0] 
D 66.320860999 _66_ IFQ  --- 8783 message 3356 [0 ffffffff 42 800] ------- [66:255 -1:255 32 0] 
D 66.328131200 _66_ IFQ  --- 8906 message 3368 [0 ffffffff 42 800] ------- [66:255 -1:255 32 0] 
D 66.351320656 _66_ IFQ  --- 8928 message 3368 [0 ffffffff 42 800] ------- [66:255 -1:255 32 0] 
D 66.490763472 _60_ IFQ  --- 8757 message 3332 [0 ffffffff 3c 800] ------- [60:255 -1:255 32 0] 
D 66.495685296 _59_ IFQ  --- 8751 message 3308 [0 ffffffff 3b 800] ------- [59:255 -1:255 32 0] 
D 66.500058227 _66_ IFQ  --- 8932 message 3368 [0 ffffffff 42 800] ------- [66:255 -1:255 32 0] 
D 66.990169046 _66_ IFQ  --- 8951 message 3368 [0 ffffffff 42 800] ------- [66:255 -1:255 32 0] 
D 67.037453250 _66_ IFQ  --- 8964 message 3368 [0 ffffffff 42 800] ------- [66:255 -1:255 32 0] 
D 67.073829144 _66_ IFQ  --- 8979 message 3368 [0 ffffffff 42 800] ------- [66:255 -1:255 32 0] 
D 67.075299383 _291_ IFQ  --- 8745 message 3308 [0 ffffffff 123 800] ------- [291:255 -1:255 32 0] 
D 67.271067855 _55_ IFQ  --- 8673 message 3296 [0 ffffffff 37 800] ------- [55:255 -1:255 32 0] 
D 67.420087542 _60_ IFQ  --- 8768 message 3332 [0 ffffffff 3c 800] ------- [60:255 -1:255 32 0] 
D 67.424186846 _291_ IFQ  --- 8761 message 3308 [0 ffffffff 123 800] ------- [291:255 -1:255 32 0] 
D 67.424396015 _66_ IFQ  --- 8991 message 3368 [0 ffffffff 42 800] ------- [66:255 -1:255 32 0] 
D 67.424529475 _53_ IFQ  --- 8939 message 3416 [0 ffffffff 35 800] ------- [53:255 -1:255 32 0] 
D 67.425135051 _291_ IFQ  --- 8771 message 3308 [0 ffffffff 123 800] ------- [291:255 -1:255 32 0] 
D 67.425760972 _66_ IFQ  --- 8995 message 3368 [0 ffffffff 42 800] ------- [66:255 -1:255 32 0] 
D 67.427213600 _60_ IFQ  --- 8782 message 3332 [0 ffffffff 3c 800] ------- [60:255 -1:255 32 0] 
D 67.455034305 _55_ IFQ  --- 8687 message 3296 [0 ffffffff 37 800] ------- [55:255 -1:255 32 0] 
D 67.462265559 _291_ IFQ  --- 8785 message 3308 [0 ffffffff 123 800] ------- [291:255 -1:255 32 0] 
D 67.487516616 _53_ IFQ  --- 8952 message 3416 [0 ffffffff 35 800] ------- [53:255 -1:255 32 0] 
D 67.511380993 _66_ IFQ  --- 9053 message 3368 [0 ffffffff 42 800] ------- [66:255 -1:255 32 0] 
D 67.513373629 _291_ IFQ  --- 8907 message 3320 [0 ffffffff 123 800] ------- [291:255 -1:255 32 0] 
D 67.516400023 _53_ IFQ  --- 8965 message 3416 [0 ffffffff 35 800] ------- [53:255 -1:255 32 0] 
D 67.518218256 _55_ IFQ  --- 8699 message 3296 [0 ffffffff 37 800] ------- [55:255 -1:255 32 0] 
D 67.519840332 _59_ IFQ  --- 8758 message 3308 [0 ffffffff 3b 800] ------- [59:255 -1:255 32 0] 
D 67.520635680 _60_ IFQ  --- 8904 message 3344 [0 ffffffff 3c 800] ------- [60:255 -1:255 32 0] 
D 67.549213318 _53_ IFQ  --- 8977 message 3416 [0 ffffffff 35 800] ------- [53:255 -1:255 32 0] 
D 67.551202182 _291_ IFQ  --- 8924 message 3320 [0 ffffffff 123 800] ------- [291:255 -1:255 32 0] 
D 67.551240989 _55_ IFQ  --- 8750 message 3296 [0 ffffffff 37 800] ------- [55:255 -1:255 32 0] 
D 67.551520848 _60_ IFQ  --- 8927 message 3344 [0 ffffffff 3c 800] ------- [60:255 -1:255 32 0] 
D 67.552670424 _66_ IFQ  --- 9099 message 3344 [0 ffffffff 42 800] ------- [66:255 -1:255 32 0] 
D 67.552928021 _59_ IFQ  --- 8909 message 3320 [0 ffffffff 3b 800] ------- [59:255 -1:255 32 0] 
D 67.635996346 _53_ IFQ  --- 8990 message 3416 [0 ffffffff 35 800] ------- [53:255 -1:255 32 0] 
D 67.639628031 _66_ IFQ  --- 9109 message 3344 [0 ffffffff 42 800] ------- [66:255 -1:255 32 0] 
D 67.641161434 _59_ IFQ  --- 8930 message 3320 [0 ffffffff 3b 800] ------- [59:255 -1:255 32 0] 
D 67.642334396 _55_ IFQ  --- 8756 message 3296 [0 ffffffff 37 800] ------- [55:255 -1:255 32 0] 
D 67.875922968 _60_ IFQ  --- 8941 message 3344 [0 ffffffff 3c 800] ------- [60:255 -1:255 32 0] 
D 67.882204662 _55_ IFQ  --- 8769 message 3296 [0 ffffffff 37 800] ------- [55:255 -1:255 32 0] 
D 67.970785632 _53_ IFQ  --- 8993 message 3416 [0 ffffffff 35 800] ------- [53:255 -1:255 32 0] 
D 68.485791091 _291_ IFQ  --- 8934 message 3320 [0 ffffffff 123 800] ------- [291:255 -1:255 32 0] 
D 68.659484115 _291_ IFQ  --- 8945 message 3320 [0 ffffffff 123 800] ------- [291:255 -1:255 32 0] 
D 75.450977654 _233_ IFQ  --- 11871 message 3524 [0 ffffffff e9 800] ------- [233:255 -1:255 32 0] 
D 75.452843524 _223_ IFQ  --- 12217 message 3536 [0 ffffffff df 800] ------- [223:255 -1:255 32 0] 
D 75.552330770 _233_ IFQ  --- 11884 message 3548 [0 ffffffff e9 800] ------- [233:255 -1:255 32 0] 
D 75.638843907 _223_ IFQ  --- 12227 message 3536 [0 ffffffff df 800] ------- [223:255 -1:255 32 0] 
D 76.065782871 _233_ IFQ  --- 11979 message 3536 [0 ffffffff e9 800] ------- [233:255 -1:255 32 0] 
D 76.160118703 _223_ IFQ  --- 12252 message 3524 [0 ffffffff df 800] ------- [223:255 -1:255 32 0] 
D 76.308009358 _223_ IFQ  --- 12262 message 3524 [0 ffffffff df 800] ------- [223:255 -1:255 32 0] 
D 76.455899542 _223_ IFQ  --- 12293 message 3536 [0 ffffffff df 800] ------- [223:255 -1:255 32 0] 
D 76.743116373 _223_ IFQ  --- 12306 message 3548 [0 ffffffff df 800] ------- [223:255 -1:255 32 0] 
D 76.984393537 _223_ IFQ  --- 12443 message 3548 [0 ffffffff df 800] ------- [223:255 -1:255 32 0] 
D 77.045056870 _223_ IFQ  --- 12455 message 3536 [0 ffffffff df 800] ------- [223:255 -1:255 32 0] 
D 77.052731072 _223_ IFQ  --- 12469 message 3536 [0 ffffffff df 800] ------- [223:255 -1:255 32 0] 
D 77.292410824 _142_ IFQ  --- 12228 message 3512 [0 ffffffff 8e 800] ------- [142:255 -1:255 32 0] 
D 77.413862064 _142_ IFQ  --- 12215 message 3512 [0 ffffffff 8e 800] ------- [142:255 -1:255 32 0] 
D 77.418345877 _223_ IFQ  --- 12513 message 3536 [0 ffffffff df 800] ------- [223:255 -1:255 32 0] 
D 77.481567444 _142_ IFQ  --- 12253 message 3500 [0 ffffffff 8e 800] ------- [142:255 -1:255 32 0] 
D 77.745723504 _223_ IFQ  --- 12544 message 3536 [0 ffffffff df 800] ------- [223:255 -1:255 32 0] 
D 77.747634971 _142_ IFQ  --- 12263 message 3500 [0 ffffffff 8e 800] ------- [142:255 -1:255 32 0] 
D 77.812970868 _223_ IFQ  --- 12580 message 3536 [0 ffffffff df 800] ------- [223:255 -1:255 32 0] 
D 77.960080779 _223_ IFQ  --- 12603 message 3536 [0 ffffffff df 800] ------- [223:255 -1:255 32 0] 
D 78.023011443 _223_ IFQ  --- 12682 message 3536 [0 ffffffff df 800] ------- [223:255 -1:255 32 0] 
D 78.083735473 _223_ IFQ  --- 12697 message 3536 [0 ffffffff df 800] ------- [223:255 -1:255 32 0] 
D 78.227873391 _142_ IFQ  --- 12291 message 3512 [0 ffffffff 8e 800] ------- [142:255 -1:255 32 0] 
D 78.230595796 _223_ IFQ  --- 12720 message 3536 [0 ffffffff df 800] ------- [223:255 -1:255 32 0] 
D 78.231561728 _142_ IFQ  --- 12307 message 3524 [0 ffffffff 8e 800] ------- [142:255 -1:255 32 0] 
D 78.242317060 _223_ IFQ  --- 12733 message 3536 [0 ffffffff df 800] ------- [223:255 -1:255 32 0] 
D 78.395705684 _142_ IFQ  --- 12439 message 3548 [0 ffffffff 8e 800] ------- [142:255 -1:255 32 0] 
D 78.483097488 _92_ IFQ  --- 13188 message 3476 [0 ffffffff 5c 800] ------- [92:255 -1:255 32 0] 
D 78.486129029 _223_ IFQ  --- 12745 message 3536 [0 ffffffff df 800] ------- [223:255 -1:255 32 0] 
D 78.489561171 _142_ IFQ  --- 12454 message 3536 [0 ffffffff 8e 800] ------- [142:255 -1:255 32 0] 
D 78.603186438 _142_ IFQ  --- 12678 message 3536 [0 ffffffff 8e 800] ------- [142:255 -1:255 32 0] 
D 78.608798354 _223_ IFQ  --- 12776 message 3536 [0 ffffffff df 800] ------- [223:255 -1:255 32 0] 
D 78.611063306 _92_ IFQ  --- 13221 message 3464 [0 ffffffff 5c 800] ------- [92:255 -1:255 32 0] 
D 78.841028513 _92_ IFQ  --- 13253 message 3464 [0 ffffffff 5c 800] ------- [92:255 -1:255 32 0] 
D 78.872694429 _223_ IFQ  --- 12836 message 3536 [0 ffffffff df 800] ------- [223:255 -1:255 32 0] 
D 78.873828112 _142_ IFQ  --- 12694 message 3536 [0 ffffffff 8e 800] ------- [142:255 -1:255 32 0] 
D 78.878846694 _92_ IFQ  --- 13356 message 3464 [0 ffffffff 5c 800] ------- [92:255 -1:255 32 0] 
D 78.905296262 _92_ IFQ  --- 13384 message 3464 [0 ffffffff 5c 800] ------- [92:255 -1:255 32 0] 
D 79.025813533 _92_ IFQ  --- 13394 message 3464 [0 ffffffff 5c 800] ------- [92:255 -1:255 32 0] 
D 79.028128905 _142_ IFQ  --- 12734 message 3536 [0 ffffffff 8e 800] ------- [142:255 -1:255 32 0] 
D 79.158053129 _223_ IFQ  --- 12855 message 3536 [0 ffffffff df 800] ------- [223:255 -1:255 32 0] 
D 79.182909787 _223_ IFQ  --- 12870 message 3524 [0 ffffffff df 800] ------- [223:255 -1:255 32 0] 
D 79.184257510 _142_ IFQ  --- 12746 message 3536 [0 ffffffff 8e 800] ------- [142:255 -1:255 32 0] 
D 79.219436855 _92_ IFQ  --- 13404 message 3464 [0 ffffffff 5c 800] ------- [92:255 -1:255 32 0] 
D 79.221082191 _142_ IFQ  --- 12765 message 3536 [0 ffffffff 8e 800] ------- [142:255 -1:255 32 0] 
D 79.222037043 _223_ IFQ  --- 12888 message 3524 [0 ffffffff df 800] ------- [223:255 -1:255 32 0] 
D 79.253983410 _223_ IFQ  --- 12918 message 3536 [0 ffffffff df 800] ------- [223:255 -1:255 32 0] 
D 79.254233519 _142_ IFQ  --- 12780 message 3536 [0 ffffffff 8e 800] ------- [142:255 -1:255 32 0] 
D 79.255682043 _92_ IFQ  --- 13410 message 3464 [0 ffffffff 5c 800] ------- [92:255 -1:255 32 0] 
D 79.511772366 _92_ IFQ  --- 13453 message 3440 [0 ffffffff 5c 800] ------- [92:255 -1:255 32 0] 
D 79.516848642 _142_ IFQ  --- 12840 message 3536 [0 ffffffff 8e 800] ------- [142:255 -1:255 32 0] 
D 79.517855430 _223_ IFQ  --- 12905 message 3536 [0 ffffffff df 800] ------- [223:255 -1:255 32 0] 
D 79.575750152 _223_ IFQ  --- 12989 message 3536 [0 ffffffff df 800] ------- [223:255 -1:255 32 0] 
D 79.576792168 _142_ IFQ  --- 12850 message 3536 [0 ffffffff 8e 800] ------- [142:255 -1:255 32 0] 
D 79.576926631 _92_ IFQ  --- 13467 message 3440 [0 ffffffff 5c 800] ------- [92:255 -1:255 32 0] 
D 79.808868734 _92_ IFQ  --- 13501 message 3440 [0 ffffffff 5c 800] ------- [92:255 -1:255 32 0] 
D 80.141197436 _92_ IFQ  --- 13514 message 3428 [0 ffffffff 5c 800] ------- [92:255 -1:255 32 0] 
D 80.428883347 _223_ IFQ  --- 13040 message 3524 [0 ffffffff df 800] ------- [223:255 -1:255 32 0] 
D 80.429636091 _92_ IFQ  --- 13543 message 3428 [0 ffffffff 5c 800] ------- [92:255 -1:255 32 0] 
D 91.695131243 _44_ IFQ  --- 17346 message 3488 [0 ffffffff 2c 800] ------- [44:255 -1:255 32 0] 
D 91.727511707 _44_ IFQ  --- 17355 message 3488 [0 ffffffff 2c 800] ------- [44:255 -1:255 32 0] 
D 91.822891098 _44_ IFQ  --- 17364 message 3488 [0 ffffffff 2c 800] ------- [44:255 -1:255 32 0] 
D 91.856452863 _44_ IFQ  --- 17576 message 3512 [0 ffffffff 2c 800] ------- [44:255 -1:255 32 0] 
D 92.406108168 _44_ IFQ  --- 17606 message 3512 [0 ffffffff 2c 800] ------- [44:255 -1:255 32 0] 
D 92.737046187 _44_ IFQ  --- 17630 message 3512 [0 ffffffff 2c 800] ------- [44:255 -1:255 32 0] 
D 92.771808685 _44_ IFQ  --- 17651 message 3512 [0 ffffffff 2c 800] ------- [44:255 -1:255 32 0] 
D 92.956692879 _44_ IFQ  --- 17657 message 3512 [0 ffffffff 2c 800] ------- [44:255 -1:255 32 0] 
D 93.018853983 _44_ IFQ  --- 17680 message 3512 [0 ffffffff 2c 800] ------- [44:255 -1:255 32 0] 