M 0.00000 300 (85.92, 60.77, 0.00), (26.08, 32.66), 2.68
M 33.00000 300 (26.08, 32.66, 0.00), (20.19, 88.21), 2.04
D 63.593811072 _148_ IFQ  --- 7564 message 3392 [0 ffffffff 94 800] ------- [148:255 -1:255 32 0] 
D 63.626696342 _148_ IFQ  --- 7569 message 3392 [0 ffffffff 94 800] ------- [148:255 -1:255 32 0] 
D 63.795044631 _148_ IFQ  --- 7581 message 3392 [0 ffffffff 94 800] ------- [148:255 -1:255 32 0] 
D 64.040866874 _148_ IFQ  --- 7583 message 3392 [0 ffffffff 94 800] ------- [148:255 -1:255 32 0] 
D 64.079020940 _148_ IFQ  --- 7594 message 3392 [0 ffffffff 94 800] ------- [148:255 -1:255 32 0] 
D 64.112558642 _148_ IFQ  --- 7608 message 3392 [0 ffffffff 94 800] ------- [148:255 -1:255 32 0] 
D 64.264321830 _148_ IFQ  --- 7619 message 3392 [0 ffffffff 94 800] ------- [148:255 -1:255 32 0] 
D 64.465359564 _162_ IFQ  --- 7908 message 3380 [0 ffffffff a2 800] ------- [162:255 -1:255 32 0] 
D 64.728674967 _148_ IFQ  --- 7644 message 3392 [0 ffffffff 94 800] ------- [148:255 -1:255 32 0] 
D 64.735252501 _162_ IFQ  --- 7925 message 3380 [0 ffffffff a2 800] ------- [162:255 -1:255 32 0] 
D 64.787951147 _162_ IFQ  --- 7940 message 3380 [0 ffffffff a2 800] ------- [162:255 -1:255 32 0] 
D 65.337314555 _126_ IFQ  --- 7931 message 3392 [0 ffffffff 7e 800] ------- [126:255 -1:255 32 0] 
D 65.512176619 _126_ IFQ  --- 7936 message 3392 [0 ffffffff 7e 800] ------- [126:255 -1:255 32 0] 
D 65.513306440 _162_ IFQ  --- 7959 message 3392 [0 ffffffff a2 800] ------- [162:255 -1:255 32 0] 
D 65.515204582 _290_ IFQ  --- 7909 message 3380 [0 ffffffff 122 800] ------- [290:255 -1:255 32 0] 
D 66.036700449 _162_ IFQ  --- 7966 message 3392 [0 ffffffff a2 800] ------- [162:255 -1:255 32 0] 
D 66.037972042 _148_ IFQ  --- 7653 message 3392 [0 ffffffff 94 800] ------- [148:255 -1:255 32 0] 
D 66.216284365 _290_ IFQ  --- 7928 message 3392 [0 ffffffff 122 800] ------- [290:255 -1:255 32 0] 
D 66.220915324 _162_ IFQ  --- 7983 message 3392 [0 ffffffff a2 800] ------- [162:255 -1:255 32 0] 
D 66.223153009 _290_ IFQ  --- 7941 message 3392 [0 ffffffff 122 800] ------- [290:255 -1:255 32 0] 
D 66.274117851 _148_ IFQ  --- 7910 message 3380 [0 ffffffff 94 800] ------- [148:255 -1:255 32 0] 
D 66.276203885 _290_ IFQ  --- 7947 message 3404 [0 ffffffff 122 800] ------- [290:255 -1:255 32 0] 
D 66.281267767 _162_ IFQ  --- 8017 message 3428 [0 ffffffff a2 800] ------- [162:255 -1:255 32 0] 
D 66.371325639 _290_ IFQ  --- 7963 message 3404 [0 ffffffff 122 800] ------- [290:255 -1:255 32 0] 
D 66.507997542 _162_ IFQ  --- 8276 message 3428 [0 ffffffff a2 800] ------- [162:255 -1:255 32 0] 
D 68.321955909 _148_ IFQ  --- 7942 message 3380 [0 ffffffff 94 800] ------- [148:255 -1:255 32 0] 
M 70.00000 300 (20.19, 88.21, 0.00), (69.73, 80.48), 1.43
D 78.462154137 _152_ IFQ  --- 11444 message 3440 [0 ffffffff 98 800] ------- [152:255 -1:255 32 0] 
D 78.576633749 _152_ IFQ  --- 11447 message 3440 [0 ffffffff 98 800] ------- [152:255 -1:255 32 0] 
D 79.034562250 _152_ IFQ  --- 11449 message 3440 [0 ffffffff 98 800] ------- [152:255 -1:255 32 0] 
D 79.390885375 _152_ IFQ  --- 11451 message 3440 [0 ffffffff 98 800] ------- [152:255 -1:255 32 0] 
D 79.536399405 _152_ IFQ  --- 11455 message 3428 [0 ffffffff 98 800] ------- [152:255 -1:255 32 0] 
D 79.882270268 _152_ IFQ  --- 11457 message 3428 [0 ffffffff 98 800] ------- [152:255 -1:255 32 0] 
D 79.966864275 _189_ IFQ  --- 12173 message 3488 [0 ffffffff bd 800] ------- [189:255 -1:255 32 0] 
D 80.307367144 _189_ IFQ  --- 12237 message 3488 [0 ffffffff bd 800] ------- [189:255 -1:255 32 0] 
D 80.901985814 _152_ IFQ  --- 11466 message 3428 [0 ffffffff 98 800] ------- [152:255 -1:255 32 0] 
D 80.908498221 _152_ IFQ  --- 11467 message 3428 [0 ffffffff 98 800] ------- [152:255 -1:255 32 0] 
D 81.061958089 _152_ IFQ  --- 11741 message 3440 [0 ffffffff 98 800] ------- [152:255 -1:255 32 0] 
D 81.177030636 _189_ IFQ  --- 12504 message 3488 [0 ffffffff bd 800] ------- [189:255 -1:255 32 0] 
D 82.000430462 _152_ IFQ  --- 11779 message 3452 [0 ffffffff 98 800] ------- [152:255 -1:255 32 0] 
D 83.085041495 _152_ IFQ  --- 11812 message 3440 [0 ffffffff 98 800] ------- [152:255 -1:255 32 0] 
D 87.539591850 _41_ IFQ  --- 16373 message 3512 [0 ffffffff 29 800] ------- [41:255 -1:255 32 0] 
D 87.656277989 _41_ IFQ  --- 16400 message 3512 [0 ffffffff 29 800] ------- [41:255 -1:255 32 0] 
D 87.716341727 _41_ IFQ  --- 16429 message 3500 [0 ffffffff 29 800] ------- [41:255 -1:255 32 0] 
D 87.771203154 _41_ IFQ  --- 16475 message 3488 [0 ffffffff 29 800] ------- [41:255 -1:255 32 0] 
D 87.860450368 _41_ IFQ  --- 16486 message 3488 [0 ffffffff 29 800] ------- [41:255 -1:255 32 0] 
D 87.916390242 _41_ IFQ  --- 16507 message 3488 [0 ffffffff 29 800] ------- [41:255 -1:255 32 0] 
D 87.974044192 _41_ IFQ  --- 16517 message 3488 [0 ffffffff 29 800] ------- [41:255 -1:255 32 0] 
D 88.034530397 _43_ IFQ  --- 16379 message 3524 [0 ffffffff 2b 800] ------- [43:255 -1:255 32 0] 
D 88.121794745 _43_ IFQ  --- 16432 message 3512 [0 ffffffff 2b 800] ------- [43:255 -1:255 32 0] 
D 88.176683583 _43_ IFQ  --- 16436 message 3512 [0 ffffffff 2b 800] ------- [43:255 -1:255 32 0] 
D 88.204340820 _43_ IFQ  --- 16476 message 3500 [0 ffffffff 2b 800] ------- [43:255 -1:255 32 0] 
D 88.209104939 _41_ IFQ  --- 16538 message 3488 [0 ffffffff 29 800] ------- [41:255 -1:255 32 0] 
D 88.241027995 _43_ IFQ  --- 16488 message 3500 [0 ffffffff 2b 800] ------- [43:255 -1:255 32 0] 
D 88.296467994 _43_ IFQ  --- 16509 message 3500 [0 ffffffff 2b 800] ------- [43:255 -1:255 32 0] 
D 88.367152781 _43_ IFQ  --- 16547 message 3500 [0 ffffffff 2b 800] ------- [43:255 -1:255 32 0] 
D 88.435624710 _43_ IFQ  --- 16625 message 3500 [0 ffffffff 2b 800] ------- [43:255 -1:255 32 0] 
D 88.437427843 _41_ IFQ  --- 16623 message 3488 [0 ffffffff 29 800] ------- [41:255 -1:255 32 0] 
D 88.498116884 _43_ IFQ  --- 16666 message 3488 [0 ffffffff 2b 800] ------- [43:255 -1:255 32 0] 
D 88.553744878 _43_ IFQ  --- 16797 message 3512 [0 ffffffff 2b 800] ------- [43:255 -1:255 32 0] 
D 88.562090693 _43_ IFQ  --- 16877 message 3512 [0 ffffffff 2b 800] ------- [43:255 -1:255 32 0] 
D 88.617415170 _43_ IFQ  --- 16912 message 3512 [0 ffffffff 2b 800] ------- [43:255 -1:255 32 0] 
D 88.650137963 _43_ IFQ  --- 16934 message 3500 [0 ffffffff 2b 800] ------- [43:255 -1:255 32 0] 
D 88.759459679 _43_ IFQ  --- 16960 message 3488 [0 ffffffff 2b 800] ------- [43:255 -1:255 32 0] 
D 88.852997502 _43_ IFQ  --- 16993 message 3488 [0 ffffffff 2b 800] ------- [43:255 -1:255 32 0] 
D 88.938608139 _43_ IFQ  --- 17061 message 3488 [0 ffffffff 2b 800] ------- [43:255 -1:255 32 0] 
D 88.993683805 _43_ IFQ  --- 17099 message 3488 [0 ffffffff 2b 800] ------- [43:255 -1:255 32 0] 
D 89.098423376 _43_ IFQ  --- 17105 message 3488 [0 ffffffff 2b 800] ------- [43:255 -1:255 32 0] 
D 89.122900909 _43_ IFQ  --- 17158 message 3488 [0 ffffffff 2b 800] ------- [43:255 -1:255 32 0] 
D 89.195065153 _43_ IFQ  --- 17216 message 3488 [0 ffffffff 2b 800] ------- [43:255 -1:255 32 0] 
D 89.456703668 _43_ IFQ  --- 17240 message 3488 [0 ffffffff 2b 800] ------- [43:255 -1:255 32 0] 
D 89.510433804 _43_ IFQ  --- 17262 message 3488 [0 ffffffff 2b 800] ------- [43:255 -1:255 32 0] 
D 89.625020648 _43_ IFQ  --- 17285 message 3488 [0 ffffffff 2b 800] ------- [43:255 -1:255 32 0] 
D 89.689136276 _43_ IFQ  --- 17342 message 3488 [0 ffffffff 2b 800] ------- [43:255 -1:255 32 0] 
D 89.903771329 _43_ IFQ  --- 17361 message 3500 [0 ffffffff 2b 800] ------- [43:255 -1:255 32 0] 
D 90.028718184 _43_ IFQ  --- 17392 message 3500 [0 ffffffff 2b 800] ------- [43:255 -1:255 32 0] 
D 90.216019020 _43_ IFQ  --- 17406 message 3500 [0 ffffffff 2b 800] ------- [43:255 -1:255 32 0] 
D 92.135513656 _41_ IFQ  --- 16665 message 3476 [0 ffffffff 29 800] ------- [41:255 -1:255 32 0] 
D 92.141242096 _43_ IFQ  --- 17422 message 3500 [0 ffffffff 2b 800] ------- [43:255 -1:255 32 0] 
D 94.320781510 _44_ IFQ  --- 16273 message 3536 [0 ffffffff 2c 800] ------- [44:255 -1:255 32 0] 
D 94.325885703 _43_ IFQ  --- 17430 message 3500 [0 ffffffff 2b 800] ------- [43:255 -1:255 32 0] 
D 94.405324132 _43_ IFQ  --- 17441 message 3500 [0 ffffffff 2b 800] ------- [43:255 -1:255 32 0] 
D 96.661230644 _43_ IFQ  --- 17449 message 3500 [0 ffffffff 2b 800] ------- [43:255 -1:255 32 0] 
D 96.769877320 _43_ IFQ  --- 17476 message 3500 [0 ffffffff 2b 800] ------- [43:255 -1:255 32 0] 
D 97.041112323 _43_ IFQ  --- 17496 message 3500 [0 ffffffff 2b 800] ------- [43:255 -1:255 32 0] 
D 97.042822265 _41_ IFQ  --- 16697 message 3488 [0 ffffffff 29 800] ------- [41:255 -1:255 32 0] 
D 97.133737836 _43_ IFQ  --- 17618 message 3500 [0 ffffffff 2b 800] ------- [43:255 -1:255 32 0] 
D 97.134897804 _41_ IFQ  --- 16731 message 3500 [0 ffffffff 29 800] ------- [41:255 -1:255 32 0] 
D 105.238936098 _197_ IFQ  --- 22539 message 3536 [0 ffffffff c5 800] ------- [197:255 -1:255 32 0] 
D 105.516033461 _197_ IFQ  --- 22647 message 3524 [0 ffffffff c5 800] ------- [197:255 -1:255 32 0] 
D 105.906610022 _197_ IFQ  --- 22798 message 3500 [0 ffffffff c5 800] ------- [197:255 -1:255 32 0] 
D 106.666221352 _197_ IFQ  --- 22828 message 3500 [0 ffffffff c5 800] ------- [197:255 -1:255 32 0] 
D 106.666564390 _243_ IFQ  --- 22886 message 3500 [0 ffffffff f3 800] ------- [243:255 -1:255 32 0] 
D 106.812050389 _197_ IFQ  --- 22889 message 3500 [0 ffffffff c5 800] ------- [197:255 -1:255 32 0] 
D 106.821112303 _243_ IFQ  --- 22903 message 3500 [0 ffffffff f3 800] ------- [243:255 -1:255 32 0] 
D 106.939576660 _197_ IFQ  --- 22899 message 3500 [0 ffffffff c5 800] ------- [197:255 -1:255 32 0] 
D 113.524291936 _71_ IFQ  --- 27060 message 3452 [0 ffffffff 47 800] ------- [71:255 -1:255 32 0] 
D 113.558140300 _71_ IFQ  --- 27123 message 3452 [0 ffffffff 47 800] ------- [71:255 -1:255 32 0] 
D 113.715788420 _63_ IFQ  --- 26900 message 3464 [0 ffffffff 3f 800] ------- [63:255 -1:255 32 0] 
D 113.886599039 _71_ IFQ  --- 27150 message 3440 [0 ffffffff 47 800] ------- [71:255 -1:255 32 0] 
D 113.980153149 _63_ IFQ  --- 27125 message 3452 [0 ffffffff 3f 800] ------- [63:255 -1:255 32 0] 
D 113.980615623 _71_ IFQ  --- 27168 message 3440 [0 ffffffff 47 800] ------- [71:255 -1:255 32 0] 
D 113.981253222 _294_ IFQ  --- 26914 message 3488 [0 ffffffff 126 800] ------- [294:255 -1:255 32 0] 
D 114.046375863 _71_ IFQ  --- 27214 message 3440 [0 ffffffff 47 800] ------- [71:255 -1:255 32 0] 
D 114.046617075 _114_ IFQ  --- 27654 message 3452 [0 ffffffff 72 800] ------- [114:255 -1:255 32 0] 
D 114.049373443 _63_ IFQ  --- 27141 message 3440 [0 ffffffff 3f 800] ------- [63:255 -1:255 32 0] 
D 114.369079656 _114_ IFQ  --- 27745 message 3440 [0 ffffffff 72 800] ------- [114:255 -1:255 32 0] 
D 114.454691627 _114_ IFQ  --- 27804 message 3440 [0 ffffffff 72 800] ------- [114:255 -1:255 32 0] 
D 114.454942046 _198_ IFQ  --- 27247 message 3428 [0 ffffffff c6 800] ------- [198:255 -1:255 32 0] 
D 114.716248313 _142_ IFQ  --- 27549 message 3464 [0 ffffffff 8e 800] ------- [142:255 -1:255 32 0] 
D 114.716510739 _114_ IFQ  --- 27785 message 3440 [0 ffffffff 72 800] ------- [114:255 -1:255 32 0] 
D 114.722150467 _65_ IFQ  --- 27164 message 3428 [0 ffffffff 41 800] ------- [65:255 -1:255 32 0] 
D 114.756015581 _114_ IFQ  --- 27836 message 3464 [0 ffffffff 72 800] ------- [114:255 -1:255 32 0] 
D 114.813921438 _65_ IFQ  --- 27350 message 3428 [0 ffffffff 41 800] ------- [65:255 -1:255 32 0] 
D 115.130947091 _65_ IFQ  --- 27392 message 3440 [0 ffffffff 41 800] ------- [65:255 -1:255 32 0] 
D 115.131233878 _198_ IFQ  --- 27393 message 3440 [0 ffffffff c6 800] ------- [198:255 -1:255 32 0] 
D 115.249901935 _198_ IFQ  --- 27423 message 3440 [0 ffffffff c6 800] ------- [198:255 -1:255 32 0] 
D 115.254255943 _63_ IFQ  --- 27167 message 3440 [0 ffffffff 3f 800] ------- [63:255 -1:255 32 0] 
D 115.255106922 _259_ IFQ  --- 27221 message 3428 [0 ffffffff 103 800] ------- [259:255 -1:255 32 0] 
D 115.255873972 _65_ IFQ  --- 27424 message 3440 [0 ffffffff 41 800] ------- [65:255 -1:255 32 0] 
D 115.257569599 _274_ IFQ  --- 27529 message 3428 [0 ffffffff 112 800] ------- [274:255 -1:255 32 0] 
D 115.284531389 _259_ IFQ  --- 27248 message 3428 [0 ffffffff 103 800] ------- [259:255 -1:255 32 0] 
D 115.289624182 _198_ IFQ  --- 27475 message 3440 [0 ffffffff c6 800] ------- [198:255 -1:255 32 0] 
D 115.312700647 _71_ IFQ  --- 27398 message 3452 [0 ffffffff 47 800] ------- [71:255 -1:255 32 0] 
D 115.315095245 _274_ IFQ  --- 27552 message 3428 [0 ffffffff 112 800] ------- [274:255 -1:255 32 0] 
D 115.316871634 _198_ IFQ  --- 27488 message 3428 [0 ffffffff c6 800] ------- [198:255 -1:255 32 0] 
D 115.317062745 _65_ IFQ  --- 27476 message 3440 [0 ffffffff 41 800] ------- [65:255 -1:255 32 0] 
D 115.317450210 _142_ IFQ  --- 27580 message 3476 [0 ffffffff 8e 800] ------- [142:255 -1:255 32 0] 
D 115.317997413 _142_ IFQ  --- 27655 message 3488 [0 ffffffff 8e 800] ------- [142:255 -1:255 32 0] 
D 115.318219201 _294_ IFQ  --- 27006 message 3488 [0 ffffffff 126 800] ------- [294:255 -1:255 32 0] 
D 115.318767238 _63_ IFQ  --- 27218 message 3428 [0 ffffffff 3f 800] ------- [63:255 -1:255 32 0] 
D 115.319113481 _114_ IFQ  --- 27953 message 3464 [0 ffffffff 72 800] ------- [114:255 -1:255 32 0] 
D 115.319515840 _259_ IFQ  --- 27395 message 3440 [0 ffffffff 103 800] ------- [259:255 -1:255 32 0] 
D 115.462674579 _142_ IFQ  --- 27672 message 3488 [0 ffffffff 8e 800] ------- [142:255 -1:255 32 0] 
D 115.463020596 _294_ IFQ  --- 27124 message 3476 [0 ffffffff 126 800] ------- [294:255 -1:255 32 0] 
D 115.463524616 _65_ IFQ  --- 27487 message 3428 [0 ffffffff 41 800] ------- [65:255 -1:255 32 0] 
D 115.464062590 _63_ IFQ  --- 27388 message 3440 [0 ffffffff 3f 800] ------- [63:255 -1:255 32 0] 
D 115.465887663 _198_ IFQ  --- 27533 message 3428 [0 ffffffff c6 800] ------- [198:255 -1:255 32 0] 
D 115.466590760 _274_ IFQ  --- 27588 message 3428 [0 ffffffff 112 800] ------- [274:255 -1:255 32 0] 
D 115.466756369 _114_ IFQ  --- 27982 message 3464 [0 ffffffff 72 800] ------- [114:255 -1:255 32 0] 
D 115.468274779 _259_ IFQ  --- 27474 message 3440 [0 ffffffff 103 800] ------- [259:255 -1:255 32 0] 
D 115.470818510 _142_ IFQ  --- 27747 message 3476 [0 ffffffff 8e 800] ------- [142:255 -1:255 32 0] 
D 115.495124896 _198_ IFQ  --- 27555 message 3428 [0 ffffffff c6 800] ------- [198:255 -1:255 32 0] 
D 115.495488725 _65_ IFQ  --- 27531 message 3428 [0 ffffffff 41 800] ------- [65:255 -1:255 32 0] 
D 115.500098122 _71_ IFQ  --- 27485 message 3440 [0 ffffffff 47 800] ------- [71:255 -1:255 32 0] 
D 115.500607312 _142_ IFQ  --- 27781 message 3476 [0 ffffffff 8e 800] ------- [142:255 -1:255 32 0] 
D 115.501878319 _259_ IFQ  --- 27490 message 3428 [0 ffffffff 103 800] ------- [259:255 -1:255 32 0] 
D 115.502507095 _94_ IFQ  --- 27482 message 3428 [0 ffffffff 5e 800] ------- [94:255 -1:255 32 0] 
D 115.531925925 _274_ IFQ  --- 27614 message 3440 [0 ffffffff 112 800] ------- [274:255 -1:255 32 0] 
D 115.560007100 _142_ IFQ  --- 27805 message 3476 [0 ffffffff 8e 800] ------- [142:255 -1:255 32 0] 
D 115.760841152 _205_ IFQ  --- 26915 message 3464 [0 ffffffff cd 800] ------- [205:255 -1:255 32 0] 
D 115.787357355 _63_ IFQ  --- 27478 message 3440 [0 ffffffff 3f 800] ------- [63:255 -1:255 32 0] 
D 115.791453029 _294_ IFQ  --- 27149 message 3464 [0 ffffffff 126 800] ------- [294:255 -1:255 32 0] 
D 116.310177309 _71_ IFQ  --- 27473 message 3452 [0 ffffffff 47 800] ------- [71:255 -1:255 32 0] 
D 116.310455354 _294_ IFQ  --- 27166 message 3464 [0 ffffffff 126 800] ------- [294:255 -1:255 32 0] 
D 116.312077393 _205_ IFQ  --- 26902 message 3464 [0 ffffffff cd 800] ------- [205:255 -1:255 32 0] 
D 116.377214434 _142_ IFQ  --- 27838 message 3488 [0 ffffffff 8e 800] ------- [142:255 -1:255 32 0] 
D 116.611005440 _274_ IFQ  --- 27675 message 3440 [0 ffffffff 112 800] ------- [274:255 -1:255 32 0] 
D 116.617559310 _198_ IFQ  --- 27591 message 3428 [0 ffffffff c6 800] ------- [198:255 -1:255 32 0] 
D 116.617640961 _142_ IFQ  --- 27859 message 3488 [0 ffffffff 8e 800] ------- [142:255 -1:255 32 0] 
D 116.618808864 _65_ IFQ  --- 27556 message 3428 [0 ffffffff 41 800] ------- [65:255 -1:255 32 0] 
D 116.646866107 _94_ IFQ  --- 27530 message 3428 [0 ffffffff 5e 800] ------- [94:255 -1:255 32 0] 
D 116.647470981 _294_ IFQ  --- 27217 message 3464 [0 ffffffff 126 800] ------- [294:255 -1:255 32 0] 
D 116.648341302 _274_ IFQ  --- 27657 message 3440 [0 ffffffff 112 800] ------- [274:255 -1:255 32 0] 
D 116.650486877 _259_ IFQ  --- 27532 message 3428 [0 ffffffff 103 800] ------- [259:255 -1:255 32 0] 
D 116.651561325 _114_ IFQ  --- 28051 message 3476 [0 ffffffff 72 800] ------- [114:255 -1:255 32 0] 
D 116.652089303 _142_ IFQ  --- 28050 message 3500 [0 ffffffff 8e 800] ------- [142:255 -1:255 32 0] 
D 116.653180773 _198_ IFQ  --- 27618 message 3440 [0 ffffffff c6 800] ------- [198:255 -1:255 32 0] 
D 116.654008647 _65_ IFQ  --- 27593 message 3428 [0 ffffffff 41 800] ------- [65:255 -1:255 32 0] 
D 116.886067008 _259_ IFQ  --- 27554 message 3428 [0 ffffffff 103 800] ------- [259:255 -1:255 32 0] 
D 116.888705105 _142_ IFQ  --- 28092 message 3500 [0 ffffffff 8e 800] ------- [142:255 -1:255 32 0] 
D 116.889106046 _114_ IFQ  --- 28096 message 3476 [0 ffffffff 72 800] ------- [114:255 -1:255 32 0] 
D 116.889125667 _94_ IFQ  --- 27553 message 3428 [0 ffffffff 5e 800] ------- [94:255 -1:255 32 0] 
D 116.892132840 _205_ IFQ  --- 27009 message 3464 [0 ffffffff cd 800] ------- [205:255 -1:255 32 0] 
D 116.930439466 _142_ IFQ  --- 28141 message 3500 [0 ffffffff 8e 800] ------- [142:255 -1:255 32 0] 
D 117.106969503 _274_ IFQ  --- 27697 message 3440 [0 ffffffff 112 800] ------- [274:255 -1:255 32 0] 
D 117.235619251 _274_ IFQ  --- 27748 message 3428 [0 ffffffff 112 800] ------- [274:255 -1:255 32 0] 
D 117.238051961 _294_ IFQ  --- 27250 message 3464 [0 ffffffff 126 800] ------- [294:255 -1:255 32 0] 
D 117.242128215 _205_ IFQ  --- 27127 message 3452 [0 ffffffff cd 800] ------- [205:255 -1:255 32 0] 
D 117.358239849 _294_ IFQ  --- 27397 message 3476 [0 ffffffff 126 800] ------- [294:255 -1:255 32 0] 
D 117.362056508 _205_ IFQ  --- 27142 message 3440 [0 ffffffff cd 800] ------- [205:255 -1:255 32 0] 
D 117.362068611 _274_ IFQ  --- 27788 message 3428 [0 ffffffff 112 800] ------- [274:255 -1:255 32 0] 
D 117.362072948 _142_ IFQ  --- 28188 message 3500 [0 ffffffff 8e 800] ------- [142:255 -1:255 32 0] 
D 117.365339838 _65_ IFQ  --- 27616 message 3440 [0 ffffffff 41 800] ------- [65:255 -1:255 32 0] 
D 117.366945314 _71_ IFQ  --- 27523 message 3440 [0 ffffffff 47 800] ------- [71:255 -1:255 32 0] 
D 117.425388813 _259_ IFQ  --- 27587 message 3428 [0 ffffffff 103 800] ------- [259:255 -1:255 32 0] 
D 117.427673726 _274_ IFQ  --- 27798 message 3428 [0 ffffffff 112 800] ------- [274:255 -1:255 32 0] 
D 117.428562145 _71_ IFQ  --- 27546 message 3440 [0 ffffffff 47 800] ------- [71:255 -1:255 32 0] 
D 117.429632599 _94_ IFQ  --- 27615 message 3440 [0 ffffffff 5e 800] ------- [94:255 -1:255 32 0] 
D 117.430194973 _205_ IFQ  --- 27170 message 3440 [0 ffffffff cd 800] ------- [205:255 -1:255 32 0] 
D 117.430444765 _60_ IFQ  --- 27224 message 3416 [0 ffffffff 3c 800] ------- [60:255 -1:255 32 0] 
D 117.432422711 _63_ IFQ  --- 27525 message 3440 [0 ffffffff 3f 800] ------- [63:255 -1:255 32 0] 
D 117.432499602 _294_ IFQ  --- 27481 message 3464 [0 ffffffff 126 800] ------- [294:255 -1:255 32 0] 
D 117.432766959 _142_ IFQ  --- 28227 message 3500 [0 ffffffff 8e 800] ------- [142:255 -1:255 32 0] 
D 117.432824365 _198_ IFQ  --- 27674 message 3440 [0 ffffffff c6 800] ------- [198:255 -1:255 32 0] 
D 117.459371050 _60_ IFQ  --- 27249 message 3416 [0 ffffffff 3c 800] ------- [60:255 -1:255 32 0] 
D 117.461127798 _198_ IFQ  --- 27658 message 3440 [0 ffffffff c6 800] ------- [198:255 -1:255 32 0] 
D 117.461696658 _259_ IFQ  --- 27617 message 3440 [0 ffffffff 103 800] ------- [259:255 -1:255 32 0] 
D 117.463164963 _63_ IFQ  --- 27548 message 3440 [0 ffffffff 3f 800] ------- [63:255 -1:255 32 0] 
D 117.463636713 _114_ IFQ  --- 28140 message 3476 [0 ffffffff 72 800] ------- [114:255 -1:255 32 0] 
D 117.463710537 _71_ IFQ  --- 27582 message 3440 [0 ffffffff 47 800] ------- [71:255 -1:255 32 0] 
D 117.464881627 _274_ IFQ  --- 27826 message 3440 [0 ffffffff 112 800] ------- [274:255 -1:255 32 0] 
D 117.465439604 _142_ IFQ  --- 28225 message 3500 [0 ffffffff 8e 800] ------- [142:255 -1:255 32 0] 
D 117.465734391 _205_ IFQ  --- 27387 message 3440 [0 ffffffff cd 800] ------- [205:255 -1:255 32 0] 
D 117.468337222 _65_ IFQ  --- 27661 message 3440 [0 ffffffff 41 800] ------- [65:255 -1:255 32 0] 
D 117.468870632 _294_ IFQ  --- 27522 message 3464 [0 ffffffff 126 800] ------- [294:255 -1:255 32 0] 
D 117.703256312 _114_ IFQ  --- 28192 message 3464 [0 ffffffff 72 800] ------- [114:255 -1:255 32 0] 
D 117.723236432 _274_ IFQ  --- 27856 message 3440 [0 ffffffff 112 800] ------- [274:255 -1:255 32 0] 
D 117.724796618 _142_ IFQ  --- 28266 message 3488 [0 ffffffff 8e 800] ------- [142:255 -1:255 32 0] 
D 117.725508942 _71_ IFQ  --- 27608 message 3452 [0 ffffffff 47 800] ------- [71:255 -1:255 32 0] 
D 117.726584833 _65_ IFQ  --- 27700 message 3440 [0 ffffffff 41 800] ------- [65:255 -1:255 32 0] 
D 117.726945741 _60_ IFQ  --- 27394 message 3440 [0 ffffffff 3c 800] ------- [60:255 -1:255 32 0] 
D 117.727126100 _294_ IFQ  --- 27537 message 3464 [0 ffffffff 126 800] ------- [294:255 -1:255 32 0] 
D 117.728077886 _259_ IFQ  --- 27656 message 3440 [0 ffffffff 103 800] ------- [259:255 -1:255 32 0] 
D 117.728797819 _114_ IFQ  --- 28201 message 3464 [0 ffffffff 72 800] ------- [114:255 -1:255 32 0] 
D 117.730525342 _198_ IFQ  --- 27749 message 3428 [0 ffffffff c6 800] ------- [198:255 -1:255 32 0] 
D 117.730927646 _94_ IFQ  --- 27660 message 3440 [0 ffffffff 5e 800] ------- [94:255 -1:255 32 0] 
D 117.731044477 _114_ IFQ  --- 28228 message 3464 [0 ffffffff 72 800] ------- [114:255 -1:255 32 0] 
D 117.831406039 _294_ IFQ  --- 27547 message 3464 [0 ffffffff 126 800] ------- [294:255 -1:255 32 0] 
D 117.831474404 _142_ IFQ  --- 28250 message 3488 [0 ffffffff 8e 800] ------- [142:255 -1:255 32 0] 
D 117.831612599 _65_ IFQ  --- 27751 message 3428 [0 ffffffff 41 800] ------- [65:255 -1:255 32 0] 
D 117.832406578 _94_ IFQ  --- 27679 message 3440 [0 ffffffff 5e 800] ------- [94:255 -1:255 32 0] 
D 117.832721797 _60_ IFQ  --- 27477 message 3440 [0 ffffffff 3c 800] ------- [60:255 -1:255 32 0] 
D 117.833429833 _114_ IFQ  --- 28226 message 3464 [0 ffffffff 72 800] ------- [114:255 -1:255 32 0] 
D 117.833447269 _198_ IFQ  --- 27792 message 3428 [0 ffffffff c6 800] ------- [198:255 -1:255 32 0] 
D 117.833630783 _223_ IFQ  --- 28086 message 3452 [0 ffffffff df 800] ------- [223:255 -1:255 32 0] 
D 117.834865758 _259_ IFQ  --- 27673 message 3440 [0 ffffffff 103 800] ------- [259:255 -1:255 32 0] 
D 117.838439539 _71_ IFQ  --- 27681 message 3452 [0 ffffffff 47 800] ------- [71:255 -1:255 32 0] 
D 117.838673579 _205_ IFQ  --- 27479 message 3428 [0 ffffffff cd 800] ------- [205:255 -1:255 32 0] 
M 118.00000 300 (69.73, 80.48, 0.00), (4.49, 83.76), 1.37
D 118.044359633 _142_ IFQ  --- 28323 message 3488 [0 ffffffff 8e 800] ------- [142:255 -1:255 32 0] 
D 118.045038791 _205_ IFQ  --- 27527 message 3428 [0 ffffffff cd 800] ------- [205:255 -1:255 32 0] 
D 118.045737522 _114_ IFQ  --- 28232 message 3464 [0 ffffffff 72 800] ------- [114:255 -1:255 32 0] 
D 118.047415275 _65_ IFQ  --- 27793 message 3428 [0 ffffffff 41 800] ------- [65:255 -1:255 32 0] 
D 118.048268492 _71_ IFQ  --- 27664 message 3452 [0 ffffffff 47 800] ------- [71:255 -1:255 32 0] 
D 118.048479169 _274_ IFQ  --- 27893 message 3440 [0 ffffffff 112 800] ------- [274:255 -1:255 32 0] 
D 118.049886935 _63_ IFQ  --- 27559 message 3440 [0 ffffffff 3f 800] ------- [63:255 -1:255 32 0] 
D 118.050253397 _259_ IFQ  --- 27696 message 3440 [0 ffffffff 103 800] ------- [259:255 -1:255 32 0] 
D 118.050754776 _156_ IFQ  --- 26916 message 3464 [0 ffffffff 9c 800] ------- [156:255 -1:255 32 0] 
D 118.050871494 _223_ IFQ  --- 28164 message 3440 [0 ffffffff df 800] ------- [223:255 -1:255 32 0] 
D 118.106066612 _156_ IFQ  --- 27007 message 3464 [0 ffffffff 9c 800] ------- [156:255 -1:255 32 0] 
D 118.107226489 _294_ IFQ  --- 27607 message 3476 [0 ffffffff 126 800] ------- [294:255 -1:255 32 0] 
D 118.107302424 _142_ IFQ  --- 28337 message 3476 [0 ffffffff 8e 800] ------- [142:255 -1:255 32 0] 
D 118.108172401 _259_ IFQ  --- 27746 message 3428 [0 ffffffff 103 800] ------- [259:255 -1:255 32 0] 
D 118.110056673 _223_ IFQ  --- 28181 message 3452 [0 ffffffff df 800] ------- [223:255 -1:255 32 0] 
D 118.110477407 _63_ IFQ  --- 27589 message 3440 [0 ffffffff 3f 800] ------- [63:255 -1:255 32 0] 
D 118.111269217 _71_ IFQ  --- 27704 message 3452 [0 ffffffff 47 800] ------- [71:255 -1:255 32 0] 
D 118.111529613 _114_ IFQ  --- 28254 message 3452 [0 ffffffff 72 800] ------- [114:255 -1:255 32 0] 
D 118.114122130 _205_ IFQ  --- 27595 message 3428 [0 ffffffff cd 800] ------- [205:255 -1:255 32 0] 
D 118.114557471 _274_ IFQ  --- 27954 message 3440 [0 ffffffff 112 800] ------- [274:255 -1:255 32 0] 
D 118.114629936 _65_ IFQ  --- 27802 message 3428 [0 ffffffff 41 800] ------- [65:255 -1:255 32 0] 
D 118.609171367 _198_ IFQ  --- 27828 message 3440 [0 ffffffff c6 800] ------- [198:255 -1:255 32 0] 
D 118.610824424 _274_ IFQ  --- 28054 message 3452 [0 ffffffff 112 800] ------- [274:255 -1:255 32 0] 
D 118.615017366 _205_ IFQ  --- 27612 message 3440 [0 ffffffff cd 800] ------- [205:255 -1:255 32 0] 
D 121.429341949 _142_ IFQ  --- 28452 message 3488 [0 ffffffff 8e 800] ------- [142:255 -1:255 32 0] 
D 121.583644964 _223_ IFQ  --- 28210 message 3452 [0 ffffffff df 800] ------- [223:255 -1:255 32 0] 
D 121.585628842 _210_ IFQ  --- 28560 message 3452 [0 ffffffff d2 800] ------- [210:255 -1:255 32 0] 
D 121.587457514 _142_ IFQ  --- 28511 message 3488 [0 ffffffff 8e 800] ------- [142:255 -1:255 32 0] 
D 121.681668363 _210_ IFQ  --- 28618 message 3452 [0 ffffffff d2 800] ------- [210:255 -1:255 32 0] 
D 121.689834843 _142_ IFQ  --- 28568 message 3488 [0 ffffffff 8e 800] ------- [142:255 -1:255 32 0] 
D 121.727652701 _210_ IFQ  --- 28650 message 3452 [0 ffffffff d2 800] ------- [210:255 -1:255 32 0] 
D 122.409582339 _168_ IFQ  --- 30953 message 3476 [0 ffffffff a8 800] ------- [168:255 -1:255 32 0] 
D 122.470497132 _168_ IFQ  --- 30988 message 3476 [0 ffffffff a8 800] ------- [168:255 -1:255 32 0] 
D 122.567592338 _168_ IFQ  --- 31004 message 3476 [0 ffffffff a8 800] ------- [168:255 -1:255 32 0] 
D 122.950674429 _175_ IFQ  --- 31003 message 3488 [0 ffffffff af 800] ------- [175:255 -1:255 32 0] 
D 123.098004685 _168_ IFQ  --- 31023 message 3488 [0 ffffffff a8 800] ------- [168:255 -1:255 32 0] 
D 123.105236624 _175_ IFQ  --- 31024 message 3488 [0 ffffffff af 800] ------- [175:255 -1:255 32 0] 
D 123.135620776 _168_ IFQ  --- 31052 message 3464 [0 ffffffff a8 800] ------- [168:255 -1:255 32 0] 
D 123.139254266 _175_ IFQ  --- 31074 message 3452 [0 ffffffff af 800] ------- [175:255 -1:255 32 0] 
D 123.255207122 _175_ IFQ  --- 31084 message 3452 [0 ffffffff af 800] ------- [175:255 -1:255 32 0] 
D 123.584142482 _168_ IFQ  --- 31073 message 3452 [0 ffffffff a8 800] ------- [168:255 -1:255 32 0] 
D 123.673491770 _168_ IFQ  --- 31091 message 3452 [0 ffffffff a8 800] ------- [168:255 -1:255 32 0] 
D 123.675114972 _175_ IFQ  --- 31114 message 3452 [0 ffffffff af 800] ------- [175:255 -1:255 32 0] 
D 123.675975950 _218_ IFQ  --- 31025 message 3488 [0 ffffffff da 800] ------- [218:255 -1:255 32 0] 
D 123.701843757 _168_ IFQ  --- 31137 message 3452 [0 ffffffff a8 800] ------- [168:255 -1:255 32 0] 
D 123.768328618 _218_ IFQ  --- 31097 message 3452 [0 ffffffff da 800] ------- [218:255 -1:255 32 0] 
D 123.855149770 _218_ IFQ  --- 31178 message 3452 [0 ffffffff da 800] ------- [218:255 -1:255 32 0] 
D 123.856071311 _175_ IFQ  --- 31149 message 3452 [0 ffffffff af 800] ------- [175:255 -1:255 32 0] 
D 123.886585044 _175_ IFQ  --- 31189 message 3452 [0 ffffffff af 800] ------- [175:255 -1:255 32 0] 
D 123.951317860 _168_ IFQ  --- 31176 message 3452 [0 ffffffff a8 800] ------- [168:255 -1:255 32 0] 
D 123.953375188 _218_ IFQ  --- 31341 message 3440 [0 ffffffff da 800] ------- [218:255 -1:255 32 0] 
D 123.955176439 _175_ IFQ  --- 31331 message 3440 [0 ffffffff af 800] ------- [175:255 -1:255 32 0] 
D 124.010235686 _168_ IFQ  --- 31214 message 3452 [0 ffffffff a8 800] ------- [168:255 -1:255 32 0] 
D 124.014926247 _218_ IFQ  --- 31526 message 3428 [0 ffffffff da 800] ------- [218:255 -1:255 32 0] 
D 124.016892212 _175_ IFQ  --- 31490 message 3440 [0 ffffffff af 800] ------- [175:255 -1:255 32 0] 
D 124.071861365 _168_ IFQ  --- 31343 message 3440 [0 ffffffff a8 800] ------- [168:255 -1:255 32 0] 
D 124.074356851 _175_ IFQ  --- 31592 message 3428 [0 ffffffff af 800] ------- [175:255 -1:255 32 0] 
D 124.077768003 _218_ IFQ  --- 31562 message 3428 [0 ffffffff da 800] ------- [218:255 -1:255 32 0] 
D 124.137137621 _175_ IFQ  --- 31625 message 3428 [0 ffffffff af 800] ------- [175:255 -1:255 32 0] 
D 124.137391729 _218_ IFQ  --- 31583 message 3428 [0 ffffffff da 800] ------- [218:255 -1:255 32 0] 
D 124.138956221 _168_ IFQ  --- 31419 message 3440 [0 ffffffff a8 800] ------- [168:255 -1:255 32 0] 
D 124.227543016 _175_ IFQ  --- 31720 message 3416 [0 ffffffff af 800] ------- [175:255 -1:255 32 0] 
D 124.256732271 _175_ IFQ  --- 31738 message 3416 [0 ffffffff af 800] ------- [175:255 -1:255 32 0] 
D 124.260258158 _218_ IFQ  --- 31594 message 3428 [0 ffffffff da 800] ------- [218:255 -1:255 32 0] 
D 124.263918572 _168_ IFQ  --- 31489 message 3440 [0 ffffffff a8 800] ------- [168:255 -1:255 32 0] 
D 124.351375644 _168_ IFQ  --- 31525 message 3428 [0 ffffffff a8 800] ------- [168:255 -1:255 32 0] 
D 124.352086701 _117_ IFQ  --- 31729 message 3416 [0 ffffffff 75 800] ------- [117:255 -1:255 32 0] 
D 124.355433327 _175_ IFQ  --- 31743 message 3416 [0 ffffffff af 800] ------- [175:255 -1:255 32 0] 
D 124.389286681 _161_ IFQ  --- 31342 message 3440 [0 ffffffff a1 800] ------- [161:255 -1:255 32 0] 