M 0.00000 300 (31.74, 85.70, 0.00), (99.83, 15.51), 1.17
D 61.751084773 _56_ IFQ  --- 7886 message 3512 [0 ffffffff 38 800] ------- [56:255 -1:255 32 0] 
D 61.902413948 _56_ IFQ  --- 7901 message 3512 [0 ffffffff 38 800] ------- [56:255 -1:255 32 0] 
D 62.022580394 _56_ IFQ  --- 7924 message 3512 [0 ffffffff 38 800] ------- [56:255 -1:255 32 0] 
D 62.074157428 _56_ IFQ  --- 7964 message 3524 [0 ffffffff 38 800] ------- [56:255 -1:255 32 0] 
D 62.107342049 _56_ IFQ  --- 7995 message 3524 [0 ffffffff 38 800] ------- [56:255 -1:255 32 0] 
D 62.253006032 _56_ IFQ  --- 8011 message 3524 [0 ffffffff 38 800] ------- [56:255 -1:255 32 0] 
D 62.322604564 _56_ IFQ  --- 8200 message 3524 [0 ffffffff 38 800] ------- [56:255 -1:255 32 0] 
D 62.353664379 _56_ IFQ  --- 8225 message 3524 [0 ffffffff 38 800] ------- [56:255 -1:255 32 0] 
D 62.389849452 _56_ IFQ  --- 8248 message 3512 [0 ffffffff 38 800] ------- [56:255 -1:255 32 0] 
D 62.425177630 _56_ IFQ  --- 8285 message 3512 [0 ffffffff 38 800] ------- [56:255 -1:255 32 0] 
D 62.481128512 _56_ IFQ  --- 8306 message 3512 [0 ffffffff 38 800] ------- [56:255 -1:255 32 0] 
D 62.485047728 _59_ IFQ  --- 8196 message 3548 [0 ffffffff 3b 800] ------- [59:255 -1:255 32 0] 
D 62.518105036 _59_ IFQ  --- 8245 message 3536 [0 ffffffff 3b 800] ------- [59:255 -1:255 32 0] 
D 62.518878830 _56_ IFQ  --- 8323 message 3512 [0 ffffffff 38 800] ------- [56:255 -1:255 32 0] 
D 62.548642726 _59_ IFQ  --- 8258 message 3536 [0 ffffffff 3b 800] ------- [59:255 -1:255 32 0] 
D 62.552243176 _233_ IFQ  --- 8232 message 3512 [0 ffffffff e9 800] ------- [233:255 -1:255 32 0] 
D 62.552501475 _56_ IFQ  --- 8358 message 3524 [0 ffffffff 38 800] ------- [56:255 -1:255 32 0] 
D 62.641669960 _56_ IFQ  --- 8381 message 3512 [0 ffffffff 38 800] ------- [56:255 -1:255 32 0] 
D 62.876880366 _56_ IFQ  --- 8397 message 3500 [0 ffffffff 38 800] ------- [56:255 -1:255 32 0] 
D 62.899747717 _233_ IFQ  --- 8242 message 3500 [0 ffffffff e9 800] ------- [233:255 -1:255 32 0] 
D 62.902233254 _56_ IFQ  --- 8416 message 3500 [0 ffffffff 38 800] ------- [56:255 -1:255 32 0] 
D 63.252841801 _59_ IFQ  --- 8271 message 3536 [0 ffffffff 3b 800] ------- [59:255 -1:255 32 0] 
D 63.254566069 _233_ IFQ  --- 8263 message 3500 [0 ffffffff e9 800] ------- [233:255 -1:255 32 0] 
D 63.278528009 _152_ IFQ  --- 8192 message 3524 [0 ffffffff 98 800] ------- [152:255 -1:255 32 0] 
D 63.285194213 _59_ IFQ  --- 8304 message 3536 [0 ffffffff 3b 800] ------- [59:255 -1:255 32 0] 
D 63.285200166 _233_ IFQ  --- 8296 message 3500 [0 ffffffff e9 800] ------- [233:255 -1:255 32 0] 
D 63.313550714 _152_ IFQ  --- 8227 message 3500 [0 ffffffff 98 800] ------- [152:255 -1:255 32 0] 
D 63.314915396 _59_ IFQ  --- 8320 message 3536 [0 ffffffff 3b 800] ------- [59:255 -1:255 32 0] 
D 63.318359535 _56_ IFQ  --- 8420 message 3500 [0 ffffffff 38 800] ------- [56:255 -1:255 32 0] 
D 63.320027158 _233_ IFQ  --- 8313 message 3500 [0 ffffffff e9 800] ------- [233:255 -1:255 32 0] 
D 63.376180349 _56_ IFQ  --- 8432 message 3500 [0 ffffffff 38 800] ------- [56:255 -1:255 32 0] 
D 63.376221040 _233_ IFQ  --- 8344 message 3500 [0 ffffffff e9 800] ------- [233:255 -1:255 32 0] 
D 63.379203570 _152_ IFQ  --- 8244 message 3488 [0 ffffffff 98 800] ------- [152:255 -1:255 32 0] 
D 63.380219857 _59_ IFQ  --- 8328 message 3536 [0 ffffffff 3b 800] ------- [59:255 -1:255 32 0] 
D 63.380295682 _56_ IFQ  --- 8457 message 3500 [0 ffffffff 38 800] ------- [56:255 -1:255 32 0] 
D 63.382458455 _59_ IFQ  --- 8353 message 3548 [0 ffffffff 3b 800] ------- [59:255 -1:255 32 0] 
D 63.382711865 _233_ IFQ  --- 8388 message 3512 [0 ffffffff e9 800] ------- [233:255 -1:255 32 0] 
D 63.593750487 _56_ IFQ  --- 8469 message 3500 [0 ffffffff 38 800] ------- [56:255 -1:255 32 0] 
D 63.613641510 _233_ IFQ  --- 8402 message 3512 [0 ffffffff e9 800] ------- [233:255 -1:255 32 0] 
D 63.619647590 _56_ IFQ  --- 8681 message 3488 [0 ffffffff 38 800] ------- [56:255 -1:255 32 0] 
D 63.646656177 _152_ IFQ  --- 8269 message 3488 [0 ffffffff 98 800] ------- [152:255 -1:255 32 0] 
D 63.651518228 _152_ IFQ  --- 8260 message 3488 [0 ffffffff 98 800] ------- [152:255 -1:255 32 0] 
D 63.653409766 _59_ IFQ  --- 8393 message 3524 [0 ffffffff 3b 800] ------- [59:255 -1:255 32 0] 
D 63.653568103 _56_ IFQ  --- 8697 message 3488 [0 ffffffff 38 800] ------- [56:255 -1:255 32 0] 
D 63.653779243 _233_ IFQ  --- 8426 message 3512 [0 ffffffff e9 800] ------- [233:255 -1:255 32 0] 
D 63.655272360 _233_ IFQ  --- 8441 message 3512 [0 ffffffff e9 800] ------- [233:255 -1:255 32 0] 
D 63.677622352 _56_ IFQ  --- 8717 message 3488 [0 ffffffff 38 800] ------- [56:255 -1:255 32 0] 
D 63.679878077 _152_ IFQ  --- 8350 message 3500 [0 ffffffff 98 800] ------- [152:255 -1:255 32 0] 
D 63.682030851 _233_ IFQ  --- 8471 message 3512 [0 ffffffff e9 800] ------- [233:255 -1:255 32 0] 
D 63.685649919 _267_ IFQ  --- 8228 message 3524 [0 ffffffff 10b 800] ------- [267:255 -1:255 32 0] 
D 63.686415545 _59_ IFQ  --- 8411 message 3524 [0 ffffffff 3b 800] ------- [59:255 -1:255 32 0] 
D 63.688126971 _163_ IFQ  --- 8412 message 3488 [0 ffffffff a3 800] ------- [163:255 -1:255 32 0] 
D 63.770675711 _233_ IFQ  --- 8691 message 3524 [0 ffffffff e9 800] ------- [233:255 -1:255 32 0] 
D 63.772945598 _59_ IFQ  --- 8464 message 3524 [0 ffffffff 3b 800] ------- [59:255 -1:255 32 0] 
D 63.772945951 _56_ IFQ  --- 8735 message 3488 [0 ffffffff 38 800] ------- [56:255 -1:255 32 0] 
D 63.772992232 _152_ IFQ  --- 8379 message 3488 [0 ffffffff 98 800] ------- [152:255 -1:255 32 0] 
D 63.776242158 _267_ IFQ  --- 8238 message 3512 [0 ffffffff 10b 800] ------- [267:255 -1:255 32 0] 
D 63.862313358 _152_ IFQ  --- 8395 message 3476 [0 ffffffff 98 800] ------- [152:255 -1:255 32 0] 
D 63.862956477 _56_ IFQ  --- 8746 message 3488 [0 ffffffff 38 800] ------- [56:255 -1:255 32 0] 
D 63.863905785 _267_ IFQ  --- 8267 message 3512 [0 ffffffff 10b 800] ------- [267:255 -1:255 32 0] 
D 63.865802715 _233_ IFQ  --- 8724 message 3524 [0 ffffffff e9 800] ------- [233:255 -1:255 32 0] 
D 63.867890012 _163_ IFQ  --- 8439 message 3488 [0 ffffffff a3 800] ------- [163:255 -1:255 32 0] 
D 63.868109813 _233_ IFQ  --- 8729 message 3524 [0 ffffffff e9 800] ------- [233:255 -1:255 32 0] 
D 64.007783706 _233_ IFQ  --- 8754 message 3524 [0 ffffffff e9 800] ------- [233:255 -1:255 32 0] 
D 64.007813216 _152_ IFQ  --- 8415 message 3476 [0 ffffffff 98 800] ------- [152:255 -1:255 32 0] 
D 64.008598821 _59_ IFQ  --- 8645 message 3524 [0 ffffffff 3b 800] ------- [59:255 -1:255 32 0] 
D 64.009048016 _163_ IFQ  --- 8642 message 3488 [0 ffffffff a3 800] ------- [163:255 -1:255 32 0] 
D 64.016264333 _267_ IFQ  --- 8299 message 3512 [0 ffffffff 10b 800] ------- [267:255 -1:255 32 0] 
D 64.097858105 _267_ IFQ  --- 8352 message 3512 [0 ffffffff 10b 800] ------- [267:255 -1:255 32 0] 
D 64.249688031 _56_ IFQ  --- 8762 message 3476 [0 ffffffff 38 800] ------- [56:255 -1:255 32 0] 
D 64.300424509 _267_ IFQ  --- 8728 message 3500 [0 ffffffff 10b 800] ------- [267:255 -1:255 32 0] 
D 64.303703933 _163_ IFQ  --- 8689 message 3488 [0 ffffffff a3 800] ------- [163:255 -1:255 32 0] 
D 64.305750046 _56_ IFQ  --- 8785 message 3476 [0 ffffffff 38 800] ------- [56:255 -1:255 32 0] 
D 64.306056631 _163_ IFQ  --- 8718 message 3488 [0 ffffffff a3 800] ------- [163:255 -1:255 32 0] 
D 64.307067480 _152_ IFQ  --- 8421 message 3476 [0 ffffffff 98 800] ------- [152:255 -1:255 32 0] 
D 64.309217803 _267_ IFQ  --- 8775 message 3488 [0 ffffffff 10b 800] ------- [267:255 -1:255 32 0] 
D 64.312613640 _162_ IFQ  --- 8644 message 3500 [0 ffffffff a2 800] ------- [162:255 -1:255 32 0] 
D 64.313366273 _59_ IFQ  --- 8683 message 3512 [0 ffffffff 3b 800] ------- [59:255 -1:255 32 0] 
D 64.313485595 _56_ IFQ  --- 8811 message 3464 [0 ffffffff 38 800] ------- [56:255 -1:255 32 0] 
D 64.313943775 _152_ IFQ  --- 8468 message 3488 [0 ffffffff 98 800] ------- [152:255 -1:255 32 0] 
D 64.314269379 _200_ IFQ  --- 9105 message 3440 [0 ffffffff c8 800] ------- [200:255 -1:255 32 0] 
D 64.338305844 _87_ IFQ  --- 8725 message 3500 [0 ffffffff 57 800] ------- [87:255 -1:255 32 0] 
D 64.338711792 _59_ IFQ  --- 8716 message 3512 [0 ffffffff 3b 800] ------- [59:255 -1:255 32 0] 
D 64.338960962 _267_ IFQ  --- 8815 message 3476 [0 ffffffff 10b 800] ------- [267:255 -1:255 32 0] 
D 64.339245019 _163_ IFQ  --- 8738 message 3488 [0 ffffffff a3 800] ------- [163:255 -1:255 32 0] 
D 64.339709225 _233_ IFQ  --- 8769 message 3512 [0 ffffffff e9 800] ------- [233:255 -1:255 32 0] 
D 64.340241224 _239_ IFQ  --- 8438 message 3512 [0 ffffffff ef 800] ------- [239:255 -1:255 32 0] 
D 64.341213293 _162_ IFQ  --- 8684 message 3488 [0 ffffffff a2 800] ------- [162:255 -1:255 32 0] 
D 64.341328682 _290_ IFQ  --- 8640 message 3464 [0 ffffffff 122 800] ------- [290:255 -1:255 32 0] 
D 64.345449385 _200_ IFQ  --- 9177 message 3440 [0 ffffffff c8 800] ------- [200:255 -1:255 32 0] 
D 64.346121840 _56_ IFQ  --- 8857 message 3464 [0 ffffffff 38 800] ------- [56:255 -1:255 32 0] 
D 64.346735101 _152_ IFQ  --- 8646 message 3488 [0 ffffffff 98 800] ------- [152:255 -1:255 32 0] 
D 64.399764001 _239_ IFQ  --- 8639 message 3512 [0 ffffffff ef 800] ------- [239:255 -1:255 32 0] 
D 64.491663325 _267_ IFQ  --- 8896 message 3476 [0 ffffffff 10b 800] ------- [267:255 -1:255 32 0] 
D 64.497513558 _200_ IFQ  --- 9208 message 3440 [0 ffffffff c8 800] ------- [200:255 -1:255 32 0] 
D 64.572907764 _162_ IFQ  --- 8714 message 3488 [0 ffffffff a2 800] ------- [162:255 -1:255 32 0] 
D 64.573365345 _163_ IFQ  --- 8749 message 3488 [0 ffffffff a3 800] ------- [163:255 -1:255 32 0] 
D 64.573733099 _87_ IFQ  --- 8732 message 3500 [0 ffffffff 57 800] ------- [87:255 -1:255 32 0] 
D 64.575860804 _239_ IFQ  --- 8703 message 3512 [0 ffffffff ef 800] ------- [239:255 -1:255 32 0] 
D 64.578293391 _233_ IFQ  --- 8819 message 3500 [0 ffffffff e9 800] ------- [233:255 -1:255 32 0] 
D 64.579025795 _267_ IFQ  --- 9115 message 3452 [0 ffffffff 10b 800] ------- [267:255 -1:255 32 0] 
D 64.580702557 _59_ IFQ  --- 8731 message 3512 [0 ffffffff 3b 800] ------- [59:255 -1:255 32 0] 
D 64.580759800 _290_ IFQ  --- 8694 message 3464 [0 ffffffff 122 800] ------- [290:255 -1:255 32 0] 
D 64.581076598 _209_ IFQ  --- 8777 message 3476 [0 ffffffff d1 800] ------- [209:255 -1:255 32 0] 
D 64.581245591 _200_ IFQ  --- 9246 message 3440 [0 ffffffff c8 800] ------- [200:255 -1:255 32 0] 
D 64.605688103 _162_ IFQ  --- 8734 message 3488 [0 ffffffff a2 800] ------- [162:255 -1:255 32 0] 
D 64.606221547 _233_ IFQ  --- 8825 message 3500 [0 ffffffff e9 800] ------- [233:255 -1:255 32 0] 
D 64.606848736 _163_ IFQ  --- 8766 message 3476 [0 ffffffff a3 800] ------- [163:255 -1:255 32 0] 
D 64.609252052 _239_ IFQ  --- 8722 message 3512 [0 ffffffff ef 800] ------- [239:255 -1:255 32 0] 
D 64.609365131 _267_ IFQ  --- 9170 message 3452 [0 ffffffff 10b 800] ------- [267:255 -1:255 32 0] 
D 64.610308420 _87_ IFQ  --- 8755 message 3500 [0 ffffffff 57 800] ------- [87:255 -1:255 32 0] 
D 64.611591153 _209_ IFQ  --- 8894 message 3464 [0 ffffffff d1 800] ------- [209:255 -1:255 32 0] 
D 64.611972327 _152_ IFQ  --- 8675 message 3488 [0 ffffffff 98 800] ------- [152:255 -1:255 32 0] 
D 64.612375087 _59_ IFQ  --- 8745 message 3512 [0 ffffffff 3b 800] ------- [59:255 -1:255 32 0] 
D 64.613180331 _200_ IFQ  --- 9264 message 3428 [0 ffffffff c8 800] ------- [200:255 -1:255 32 0] 
D 64.613224056 _122_ IFQ  --- 8892 message 3476 [0 ffffffff 7a 800] ------- [122:255 -1:255 32 0] 
D 64.638071800 _233_ IFQ  --- 8847 message 3500 [0 ffffffff e9 800] ------- [233:255 -1:255 32 0] 
D 64.638397975 _163_ IFQ  --- 8779 message 3476 [0 ffffffff a3 800] ------- [163:255 -1:255 32 0] 
D 64.638573975 _162_ IFQ  --- 8760 message 3488 [0 ffffffff a2 800] ------- [162:255 -1:255 32 0] 
D 64.639235180 _200_ IFQ  --- 9298 message 3428 [0 ffffffff c8 800] ------- [200:255 -1:255 32 0] 
D 64.639304183 _267_ IFQ  --- 9209 message 3452 [0 ffffffff 10b 800] ------- [267:255 -1:255 32 0] 
D 64.640399780 _290_ IFQ  --- 8721 message 3464 [0 ffffffff 122 800] ------- [290:255 -1:255 32 0] 
D 64.641356649 _122_ IFQ  --- 9109 message 3452 [0 ffffffff 7a 800] ------- [122:255 -1:255 32 0] 
D 64.642546356 _56_ IFQ  --- 8888 message 3464 [0 ffffffff 38 800] ------- [56:255 -1:255 32 0] 
D 64.642650878 _152_ IFQ  --- 8687 message 3488 [0 ffffffff 98 800] ------- [152:255 -1:255 32 0] 
D 64.643670711 _87_ IFQ  --- 8771 message 3488 [0 ffffffff 57 800] ------- [87:255 -1:255 32 0] 
D 64.644858760 _59_ IFQ  --- 8761 message 3500 [0 ffffffff 3b 800] ------- [59:255 -1:255 32 0] 
D 64.645246739 _209_ IFQ  --- 9068 message 3464 [0 ffffffff d1 800] ------- [209:255 -1:255 32 0] 
D 64.646408795 _239_ IFQ  --- 8730 message 3512 [0 ffffffff ef 800] ------- [239:255 -1:255 32 0] 
D 64.669954994 _200_ IFQ  --- 9290 message 3428 [0 ffffffff c8 800] ------- [200:255 -1:255 32 0] 
D 64.670364212 _122_ IFQ  --- 9172 message 3452 [0 ffffffff 7a 800] ------- [122:255 -1:255 32 0] 
D 64.672285524 _209_ IFQ  --- 9171 message 3440 [0 ffffffff d1 800] ------- [209:255 -1:255 32 0] 
D 64.672534027 _267_ IFQ  --- 9227 message 3452 [0 ffffffff 10b 800] ------- [267:255 -1:255 32 0] 
D 64.676149519 _209_ IFQ  --- 9210 message 3440 [0 ffffffff d1 800] ------- [209:255 -1:255 32 0] 
D 64.701335179 _233_ IFQ  --- 8900 message 3500 [0 ffffffff e9 800] ------- [233:255 -1:255 32 0] 
D 64.702335961 _152_ IFQ  --- 8715 message 3488 [0 ffffffff 98 800] ------- [152:255 -1:255 32 0] 
D 64.702751309 _200_ IFQ  --- 9503 message 3428 [0 ffffffff c8 800] ------- [200:255 -1:255 32 0] 
D 64.702848674 _87_ IFQ  --- 8773 message 3488 [0 ffffffff 57 800] ------- [87:255 -1:255 32 0] 
D 64.703229088 _56_ IFQ  --- 9066 message 3464 [0 ffffffff 38 800] ------- [56:255 -1:255 32 0] 
D 64.703370425 _239_ IFQ  --- 8752 message 3512 [0 ffffffff ef 800] ------- [239:255 -1:255 32 0] 
D 64.703520921 _59_ IFQ  --- 8783 message 3500 [0 ffffffff 3b 800] ------- [59:255 -1:255 32 0] 
D 64.704785519 _162_ IFQ  --- 8780 message 3488 [0 ffffffff a2 800] ------- [162:255 -1:255 32 0] 
D 64.706066980 _122_ IFQ  --- 9211 message 3452 [0 ffffffff 7a 800] ------- [122:255 -1:255 32 0] 
D 64.706663172 _163_ IFQ  --- 8804 message 3464 [0 ffffffff a3 800] ------- [163:255 -1:255 32 0] 
D 64.707681373 _239_ IFQ  --- 8772 message 3500 [0 ffffffff ef 800] ------- [239:255 -1:255 32 0] 
D 64.708853909 _290_ IFQ  --- 8737 message 3464 [0 ffffffff 122 800] ------- [290:255 -1:255 32 0] 
D 64.709350443 _267_ IFQ  --- 9238 message 3452 [0 ffffffff 10b 800] ------- [267:255 -1:255 32 0] 
D 64.711067548 _209_ IFQ  --- 9239 message 3440 [0 ffffffff d1 800] ------- [209:255 -1:255 32 0] 
D 64.762430228 _200_ IFQ  --- 9532 message 3416 [0 ffffffff c8 800] ------- [200:255 -1:255 32 0] 
D 64.762547033 _233_ IFQ  --- 9074 message 3500 [0 ffffffff e9 800] ------- [233:255 -1:255 32 0] 
D 64.762622183 _56_ IFQ  --- 9111 message 3440 [0 ffffffff 38 800] ------- [56:255 -1:255 32 0] 
D 64.763372501 _162_ IFQ  --- 8821 message 3476 [0 ffffffff a2 800] ------- [162:255 -1:255 32 0] 
D 64.766287826 _290_ IFQ  --- 8753 message 3464 [0 ffffffff 122 800] ------- [290:255 -1:255 32 0] 
D 64.767125019 _122_ IFQ  --- 9240 message 3452 [0 ffffffff 7a 800] ------- [122:255 -1:255 32 0] 
D 64.768066539 _87_ IFQ  --- 8818 message 3476 [0 ffffffff 57 800] ------- [87:255 -1:255 32 0] 
D 64.768853927 _286_ IFQ  --- 8720 message 3476 [0 ffffffff 11e 800] ------- [286:255 -1:255 32 0] 
D 64.769096410 _152_ IFQ  --- 8739 message 3488 [0 ffffffff 98 800] ------- [152:255 -1:255 32 0] 
D 64.769602147 _209_ IFQ  --- 9266 message 3428 [0 ffffffff d1 800] ------- [209:255 -1:255 32 0] 
D 64.771967429 _239_ IFQ  --- 8768 message 3500 [0 ffffffff ef 800] ------- [239:255 -1:255 32 0] 
D 64.796530821 _87_ IFQ  --- 8848 message 3476 [0 ffffffff 57 800] ------- [87:255 -1:255 32 0] 
D 64.857977343 _87_ IFQ  --- 8902 message 3476 [0 ffffffff 57 800] ------- [87:255 -1:255 32 0] 
D 64.863539750 _87_ IFQ  --- 9073 message 3476 [0 ffffffff 57 800] ------- [87:255 -1:255 32 0] 
D 64.949638055 _200_ IFQ  --- 9554 message 3416 [0 ffffffff c8 800] ------- [200:255 -1:255 32 0] 
D 64.950826398 _163_ IFQ  --- 8808 message 3464 [0 ffffffff a3 800] ------- [163:255 -1:255 32 0] 
D 64.951457363 _286_ IFQ  --- 8736 message 3476 [0 ffffffff 11e 800] ------- [286:255 -1:255 32 0] 
D 64.951534532 _87_ IFQ  --- 9169 message 3452 [0 ffffffff 57 800] ------- [87:255 -1:255 32 0] 
D 64.951688256 _239_ IFQ  --- 8899 message 3488 [0 ffffffff ef 800] ------- [239:255 -1:255 32 0] 
D 64.953853799 _267_ IFQ  --- 9265 message 3440 [0 ffffffff 10b 800] ------- [267:255 -1:255 32 0] 
D 64.955842937 _162_ IFQ  --- 8852 message 3476 [0 ffffffff a2 800] ------- [162:255 -1:255 32 0] 
D 64.956383049 _233_ IFQ  --- 9207 message 3476 [0 ffffffff e9 800] ------- [233:255 -1:255 32 0] 
D 64.957312863 _56_ IFQ  --- 9134 message 3440 [0 ffffffff 38 800] ------- [56:255 -1:255 32 0] 
D 64.958100681 _56_ IFQ  --- 9151 message 3440 [0 ffffffff 38 800] ------- [56:255 -1:255 32 0] 
D 64.958837888 _122_ IFQ  --- 9267 message 3440 [0 ffffffff 7a 800] ------- [122:255 -1:255 32 0] 
D 64.959341382 _209_ IFQ  --- 9307 message 3428 [0 ffffffff d1 800] ------- [209:255 -1:255 32 0] 
D 64.981792527 _162_ IFQ  --- 8891 message 3488 [0 ffffffff a2 800] ------- [162:255 -1:255 32 0] 
D 64.982320302 _59_ IFQ  --- 8812 message 3488 [0 ffffffff 3b 800] ------- [59:255 -1:255 32 0] 
D 64.982999387 _239_ IFQ  --- 9072 message 3488 [0 ffffffff ef 800] ------- [239:255 -1:255 32 0] 
D 64.983941892 _152_ IFQ  --- 8747 message 3488 [0 ffffffff 98 800] ------- [152:255 -1:255 32 0] 
D 64.984622376 _163_ IFQ  --- 8897 message 3464 [0 ffffffff a3 800] ------- [163:255 -1:255 32 0] 
D 64.986850436 _200_ IFQ  --- 9574 message 3416 [0 ffffffff c8 800] ------- [200:255 -1:255 32 0] 
D 64.987139202 _290_ IFQ  --- 8770 message 3452 [0 ffffffff 122 800] ------- [290:255 -1:255 32 0] 
D 64.988234247 _56_ IFQ  --- 9191 message 3440 [0 ffffffff 38 800] ------- [56:255 -1:255 32 0] 
D 64.988574855 _267_ IFQ  --- 9288 message 3440 [0 ffffffff 10b 800] ------- [267:255 -1:255 32 0] 
D 64.989005840 _233_ IFQ  --- 9235 message 3476 [0 ffffffff e9 800] ------- [233:255 -1:255 32 0] 
D 64.989103576 _122_ IFQ  --- 9284 message 3440 [0 ffffffff 7a 800] ------- [122:255 -1:255 32 0] 
D 64.990397940 _286_ IFQ  --- 8751 message 3476 [0 ffffffff 11e 800] ------- [286:255 -1:255 32 0] 
D 64.991422551 _286_ IFQ  --- 8767 message 3464 [0 ffffffff 11e 800] ------- [286:255 -1:255 32 0] 
D 65.016188622 _152_ IFQ  --- 8806 message 3476 [0 ffffffff 98 800] ------- [152:255 -1:255 32 0] 
D 65.016452414 _286_ IFQ  --- 8809 message 3452 [0 ffffffff 11e 800] ------- [286:255 -1:255 32 0] 
D 65.017100028 _163_ IFQ  --- 9063 message 3464 [0 ffffffff a3 800] ------- [163:255 -1:255 32 0] 
D 65.017126961 _233_ IFQ  --- 9263 message 3464 [0 ffffffff e9 800] ------- [233:255 -1:255 32 0] 
D 65.017709353 _290_ IFQ  --- 8776 message 3452 [0 ffffffff 122 800] ------- [290:255 -1:255 32 0] 
D 65.019477516 _239_ IFQ  --- 9077 message 3488 [0 ffffffff ef 800] ------- [239:255 -1:255 32 0] 
D 65.019921850 _122_ IFQ  --- 9332 message 3440 [0 ffffffff 7a 800] ------- [122:255 -1:255 32 0] 
D 65.020255945 _267_ IFQ  --- 9523 message 3428 [0 ffffffff 10b 800] ------- [267:255 -1:255 32 0] 
D 65.021722949 _162_ IFQ  --- 9062 message 3488 [0 ffffffff a2 800] ------- [162:255 -1:255 32 0] 
D 65.021926543 _209_ IFQ  --- 9495 message 3428 [0 ffffffff d1 800] ------- [209:255 -1:255 32 0] 
D 65.022592396 _87_ IFQ  --- 9203 message 3452 [0 ffffffff 57 800] ------- [87:255 -1:255 32 0] 
D 65.023265856 _200_ IFQ  --- 9600 message 3416 [0 ffffffff c8 800] ------- [200:255 -1:255 32 0] 
D 65.078976458 _233_ IFQ  --- 9276 message 3464 [0 ffffffff e9 800] ------- [233:255 -1:255 32 0] 
D 65.192399549 _233_ IFQ  --- 9294 message 3464 [0 ffffffff e9 800] ------- [233:255 -1:255 32 0] 
D 65.198350621 _87_ IFQ  --- 9236 message 3452 [0 ffffffff 57 800] ------- [87:255 -1:255 32 0] 
D 65.309295686 _87_ IFQ  --- 9260 message 3440 [0 ffffffff 57 800] ------- [87:255 -1:255 32 0] 
D 65.311012265 _163_ IFQ  --- 9107 message 3440 [0 ffffffff a3 800] ------- [163:255 -1:255 32 0] 
D 65.312487481 _59_ IFQ  --- 8855 message 3488 [0 ffffffff 3b 800] ------- [59:255 -1:255 32 0] 
D 65.313121454 _290_ IFQ  --- 8850 message 3440 [0 ffffffff 122 800] ------- [290:255 -1:255 32 0] 
D 65.337914727 _59_ IFQ  --- 8889 message 3488 [0 ffffffff 3b 800] ------- [59:255 -1:255 32 0] 
D 65.337982178 _122_ IFQ  --- 9524 message 3428 [0 ffffffff 7a 800] ------- [122:255 -1:255 32 0] 
D 65.339633827 _162_ IFQ  --- 9082 message 3488 [0 ffffffff a2 800] ------- [162:255 -1:255 32 0] 
D 65.340282698 _290_ IFQ  --- 8874 message 3428 [0 ffffffff 122 800] ------- [290:255 -1:255 32 0] 
D 65.340672695 _56_ IFQ  --- 9217 message 3440 [0 ffffffff 38 800] ------- [56:255 -1:255 32 0] 
D 65.340713977 _267_ IFQ  --- 9552 message 3428 [0 ffffffff 10b 800] ------- [267:255 -1:255 32 0] 
D 65.341092482 _286_ IFQ  --- 8849 message 3452 [0 ffffffff 11e 800] ------- [286:255 -1:255 32 0] 
D 65.341260706 _152_ IFQ  --- 8853 message 3476 [0 ffffffff 98 800] ------- [152:255 -1:255 32 0] 
D 65.341494478 _209_ IFQ  --- 9525 message 3416 [0 ffffffff d1 800] ------- [209:255 -1:255 32 0] 
D 65.344383388 _87_ IFQ  --- 9295 message 3440 [0 ffffffff 57 800] ------- [87:255 -1:255 32 0] 
D 65.344636292 _163_ IFQ  --- 9176 message 3440 [0 ffffffff a3 800] ------- [163:255 -1:255 32 0] 
D 65.346928965 _239_ IFQ  --- 9117 message 3464 [0 ffffffff ef 800] ------- [239:255 -1:255 32 0] 
D 65.347284480 _233_ IFQ  --- 9498 message 3464 [0 ffffffff e9 800] ------- [233:255 -1:255 32 0] 
D 65.371325256 _239_ IFQ  --- 9168 message 3464 [0 ffffffff ef 800] ------- [239:255 -1:255 32 0] 
D 65.371598415 _56_ IFQ  --- 9252 message 3440 [0 ffffffff 38 800] ------- [56:255 -1:255 32 0] 
D 65.372045180 _122_ IFQ  --- 9547 message 3428 [0 ffffffff 7a 800] ------- [122:255 -1:255 32 0] 
D 65.372690411 _209_ IFQ  --- 9549 message 3416 [0 ffffffff d1 800] ------- [209:255 -1:255 32 0] 
D 65.372943302 _152_ IFQ  --- 9140 message 3464 [0 ffffffff 98 800] ------- [152:255 -1:255 32 0] 
D 65.372953864 _290_ IFQ  --- 8901 message 3428 [0 ffffffff 122 800] ------- [290:255 -1:255 32 0] 
D 65.373674856 _267_ IFQ  --- 9572 message 3428 [0 ffffffff 10b 800] ------- [267:255 -1:255 32 0] 
D 65.373765508 _163_ IFQ  --- 9206 message 3440 [0 ffffffff a3 800] ------- [163:255 -1:255 32 0] 
D 65.373946319 _200_ IFQ  --- 9606 message 3416 [0 ffffffff c8 800] ------- [200:255 -1:255 32 0] 
D 65.376462814 _87_ IFQ  --- 9501 message 3440 [0 ffffffff 57 800] ------- [87:255 -1:255 32 0] 
D 65.376498116 _59_ IFQ  --- 9067 message 3488 [0 ffffffff 3b 800] ------- [59:255 -1:255 32 0] 
D 65.376523442 _286_ IFQ  --- 8898 message 3452 [0 ffffffff 11e 800] ------- [286:255 -1:255 32 0] 
D 65.378449264 _233_ IFQ  --- 9529 message 3452 [0 ffffffff e9 800] ------- [233:255 -1:255 32 0] 
D 65.380228049 _162_ IFQ  --- 9106 message 3464 [0 ffffffff a2 800] ------- [162:255 -1:255 32 0] 
D 65.432528168 _209_ IFQ  --- 9570 message 3416 [0 ffffffff d1 800] ------- [209:255 -1:255 32 0] 
D 65.432860664 _162_ IFQ  --- 9179 message 3464 [0 ffffffff a2 800] ------- [162:255 -1:255 32 0] 
D 65.433396331 _233_ IFQ  --- 9557 message 3452 [0 ffffffff e9 800] ------- [233:255 -1:255 32 0] 
D 65.434298203 _59_ IFQ  --- 9180 message 3464 [0 ffffffff 3b 800] ------- [59:255 -1:255 32 0] 
D 65.434553395 _163_ IFQ  --- 9228 message 3440 [0 ffffffff a3 800] ------- [163:255 -1:255 32 0] 
D 65.437751995 _286_ IFQ  --- 9175 message 3428 [0 ffffffff 11e 800] ------- [286:255 -1:255 32 0] 
D 65.437931388 _56_ IFQ  --- 9273 message 3428 [0 ffffffff 38 800] ------- [56:255 -1:255 32 0] 
D 65.438621200 _152_ IFQ  --- 9181 message 3464 [0 ffffffff 98 800] ------- [152:255 -1:255 32 0] 
D 65.439036999 _122_ IFQ  --- 9568 message 3428 [0 ffffffff 7a 800] ------- [122:255 -1:255 32 0] 
D 65.439160083 _87_ IFQ  --- 9531 message 3428 [0 ffffffff 57 800] ------- [87:255 -1:255 32 0] 
D 65.441150041 _290_ IFQ  --- 9069 message 3428 [0 ffffffff 122 800] ------- [290:255 -1:255 32 0] 
D 65.498135889 _59_ IFQ  --- 9216 message 3464 [0 ffffffff 3b 800] ------- [59:255 -1:255 32 0] 
D 65.521587594 _267_ IFQ  --- 9593 message 3428 [0 ffffffff 10b 800] ------- [267:255 -1:255 32 0] 
D 65.525136994 _122_ IFQ  --- 9595 message 3428 [0 ffffffff 7a 800] ------- [122:255 -1:255 32 0] 
D 65.526634320 _209_ IFQ  --- 9594 message 3416 [0 ffffffff d1 800] ------- [209:255 -1:255 32 0] 
D 65.528921154 _200_ IFQ  --- 9665 message 3404 [0 ffffffff c8 800] ------- [200:255 -1:255 32 0] 
D 65.673371259 _56_ IFQ  --- 9502 message 3428 [0 ffffffff 38 800] ------- [56:255 -1:255 32 0] 
D 65.755052595 _163_ IFQ  --- 9245 message 3440 [0 ffffffff a3 800] ------- [163:255 -1:255 32 0] 
D 65.755257765 _87_ IFQ  --- 9560 message 3428 [0 ffffffff 57 800] ------- [87:255 -1:255 32 0] 
D 65.755586676 _200_ IFQ  --- 9694 message 3404 [0 ffffffff c8 800] ------- [200:255 -1:255 32 0] 
D 65.755904157 _152_ IFQ  --- 9212 message 3464 [0 ffffffff 98 800] ------- [152:255 -1:255 32 0] 
D 65.756255856 _286_ IFQ  --- 9205 message 3428 [0 ffffffff 11e 800] ------- [286:255 -1:255 32 0] 
D 65.757898949 _209_ IFQ  --- 9614 message 3416 [0 ffffffff d1 800] ------- [209:255 -1:255 32 0] 
D 65.759170802 _59_ IFQ  --- 9248 message 3464 [0 ffffffff 3b 800] ------- [59:255 -1:255 32 0] 
D 65.760830311 _56_ IFQ  --- 9528 message 3416 [0 ffffffff 38 800] ------- [56:255 -1:255 32 0] 
D 65.762199450 _267_ IFQ  --- 9616 message 3428 [0 ffffffff 10b 800] ------- [267:255 -1:255 32 0] 
D 65.763870269 _233_ IFQ  --- 9577 message 3452 [0 ffffffff e9 800] ------- [233:255 -1:255 32 0] 
D 66.185890706 _200_ IFQ  --- 9713 message 3404 [0 ffffffff c8 800] ------- [200:255 -1:255 32 0] 
D 66.331500300 _267_ IFQ  --- 9629 message 3428 [0 ffffffff 10b 800] ------- [267:255 -1:255 32 0] 
D 66.333252597 _162_ IFQ  --- 9213 message 3464 [0 ffffffff a2 800] ------- [162:255 -1:255 32 0] 
D 66.333299808 _290_ IFQ  --- 9204 message 3404 [0 ffffffff 122 800] ------- [290:255 -1:255 32 0] 
D 66.333573831 _152_ IFQ  --- 9226 message 3464 [0 ffffffff 98 800] ------- [152:255 -1:255 32 0] 
D 66.334578444 _239_ IFQ  --- 9237 message 3464 [0 ffffffff ef 800] ------- [239:255 -1:255 32 0] 
D 66.334653788 _59_ IFQ  --- 9272 message 3452 [0 ffffffff 3b 800] ------- [59:255 -1:255 32 0] 
D 66.338603922 _200_ IFQ  --- 9725 message 3404 [0 ffffffff c8 800] ------- [200:255 -1:255 32 0] 
D 66.338818715 _209_ IFQ  --- 9690 message 3404 [0 ffffffff d1 800] ------- [209:255 -1:255 32 0] 
D 67.141308009 _233_ IFQ  --- 9590 message 3452 [0 ffffffff e9 800] ------- [233:255 -1:255 32 0] 
D 67.167072772 _233_ IFQ  --- 9620 message 3452 [0 ffffffff e9 800] ------- [233:255 -1:255 32 0] 
D 67.168541744 _267_ IFQ  --- 9663 message 3416 [0 ffffffff 10b 800] ------- [267:255 -1:255 32 0] 
D 67.169034638 _209_ IFQ  --- 9711 message 3404 [0 ffffffff d1 800] ------- [209:255 -1:255 32 0] 
D 67.172135008 _122_ IFQ  --- 9613 message 3428 [0 ffffffff 7a 800] ------- [122:255 -1:255 32 0] 
D 67.172308174 _286_ IFQ  --- 9229 message 3428 [0 ffffffff 11e 800] ------- [286:255 -1:255 32 0] 
D 67.197275026 _163_ IFQ  --- 9505 message 3428 [0 ffffffff a3 800] ------- [163:255 -1:255 32 0] 
D 67.198165973 _59_ IFQ  --- 9282 message 3452 [0 ffffffff 3b 800] ------- [59:255 -1:255 32 0] 
D 67.199531299 _162_ IFQ  --- 9247 message 3464 [0 ffffffff a2 800] ------- [162:255 -1:255 32 0] 
D 67.200376598 _209_ IFQ  --- 9728 message 3404 [0 ffffffff d1 800] ------- [209:255 -1:255 32 0] 
D 67.201369426 _239_ IFQ  --- 9253 message 3464 [0 ffffffff ef 800] ------- [239:255 -1:255 32 0] 
D 67.201773779 _267_ IFQ  --- 9680 message 3416 [0 ffffffff 10b 800] ------- [267:255 -1:255 32 0] 
D 67.203809273 _122_ IFQ  --- 9634 message 3428 [0 ffffffff 7a 800] ------- [122:255 -1:255 32 0] 
D 67.204902105 _56_ IFQ  --- 9550 message 3416 [0 ffffffff 38 800] ------- [56:255 -1:255 32 0] 
D 67.263120744 _267_ IFQ  --- 9714 message 3416 [0 ffffffff 10b 800] ------- [267:255 -1:255 32 0] 
D 67.287645505 _122_ IFQ  --- 9660 message 3416 [0 ffffffff 7a 800] ------- [122:255 -1:255 32 0] 
D 67.287784937 _87_ IFQ  --- 9580 message 3428 [0 ffffffff 57 800] ------- [87:255 -1:255 32 0] 
D 67.291166553 _59_ IFQ  --- 9497 message 3452 [0 ffffffff 3b 800] ------- [59:255 -1:255 32 0] 
D 67.291630901 _162_ IFQ  --- 9269 message 3452 [0 ffffffff a2 800] ------- [162:255 -1:255 32 0] 
D 67.291660467 _209_ IFQ  --- 9756 message 3404 [0 ffffffff d1 800] ------- [209:255 -1:255 32 0] 
D 67.292061525 _200_ IFQ  --- 9749 message 3404 [0 ffffffff c8 800] ------- [200:255 -1:255 32 0] 
D 67.292945207 _286_ IFQ  --- 9244 message 3428 [0 ffffffff 11e 800] ------- [286:255 -1:255 32 0] 
D 67.295651601 _267_ IFQ  --- 9731 message 3416 [0 ffffffff 10b 800] ------- [267:255 -1:255 32 0] 
D 67.296467732 _233_ IFQ  --- 9626 message 3452 [0 ffffffff e9 800] ------- [233:255 -1:255 32 0] 
D 67.320279369 _122_ IFQ  --- 9688 message 3416 [0 ffffffff 7a 800] ------- [122:255 -1:255 32 0] 
D 67.321819391 _200_ IFQ  --- 9769 message 3404 [0 ffffffff c8 800] ------- [200:255 -1:255 32 0] 
D 67.322017794 _152_ IFQ  --- 9249 message 3464 [0 ffffffff 98 800] ------- [152:255 -1:255 32 0] 
D 67.323469587 _162_ IFQ  --- 9283 message 3452 [0 ffffffff a2 800] ------- [162:255 -1:255 32 0] 
D 67.324001838 _163_ IFQ  --- 9536 message 3416 [0 ffffffff a3 800] ------- [163:255 -1:255 32 0] 
D 67.325212693 _87_ IFQ  --- 9591 message 3428 [0 ffffffff 57 800] ------- [87:255 -1:255 32 0] 
D 67.325446163 _239_ IFQ  --- 9259 message 3452 [0 ffffffff ef 800] ------- [239:255 -1:255 32 0] 
D 67.325910788 _56_ IFQ  --- 9569 message 3416 [0 ffffffff 38 800] ------- [56:255 -1:255 32 0] 
D 67.326907171 _286_ IFQ  --- 9261 message 3416 [0 ffffffff 11e 800] ------- [286:255 -1:255 32 0] 
D 67.328330418 _59_ IFQ  --- 9526 message 3440 [0 ffffffff 3b 800] ------- [59:255 -1:255 32 0] 