M 0.00000 300 (25.12, 90.08, 0.00), (25.65, 53.83), 1.68
M 29.00000 300 (25.65, 53.83, 0.00), (64.53, 18.83), 2.41
M 58.00000 300 (64.53, 18.83, 0.00), (94.80, 51.11), 1.12
D 62.638377636 _103_ IFQ  --- 7699 message 3392 [0 ffffffff 67 800] ------- [103:255 -1:255 32 0] 
D 62.730290814 _105_ IFQ  --- 7489 message 3416 [0 ffffffff 69 800] ------- [105:255 -1:255 32 0] 
D 62.836255113 _105_ IFQ  --- 7496 message 3416 [0 ffffffff 69 800] ------- [105:255 -1:255 32 0] 
D 62.844563415 _103_ IFQ  --- 7707 message 3392 [0 ffffffff 67 800] ------- [103:255 -1:255 32 0] 
D 62.926017692 _105_ IFQ  --- 7615 message 3416 [0 ffffffff 69 800] ------- [105:255 -1:255 32 0] 
D 62.934811089 _103_ IFQ  --- 7788 message 3404 [0 ffffffff 67 800] ------- [103:255 -1:255 32 0] 
D 62.988167609 _105_ IFQ  --- 7619 message 3416 [0 ffffffff 69 800] ------- [105:255 -1:255 32 0] 
D 63.014471594 _105_ IFQ  --- 7628 message 3416 [0 ffffffff 69 800] ------- [105:255 -1:255 32 0] 
D 63.359955574 _103_ IFQ  --- 7868 message 3416 [0 ffffffff 67 800] ------- [103:255 -1:255 32 0] 
D 63.444716112 _103_ IFQ  --- 7885 message 3404 [0 ffffffff 67 800] ------- [103:255 -1:255 32 0] 
D 63.445992238 _105_ IFQ  --- 7646 message 3404 [0 ffffffff 69 800] ------- [105:255 -1:255 32 0] 
D 63.474381616 _105_ IFQ  --- 7701 message 3392 [0 ffffffff 69 800] ------- [105:255 -1:255 32 0] 
D 63.480389381 _103_ IFQ  --- 7930 message 3404 [0 ffffffff 67 800] ------- [103:255 -1:255 32 0] 
D 63.480967638 _136_ IFQ  --- 7702 message 3368 [0 ffffffff 88 800] ------- [136:255 -1:255 32 0] 
D 63.485661197 _105_ IFQ  --- 7696 message 3404 [0 ffffffff 69 800] ------- [105:255 -1:255 32 0] 
D 63.491450587 _103_ IFQ  --- 7991 message 3404 [0 ffffffff 67 800] ------- [103:255 -1:255 32 0] 
D 63.521987321 _105_ IFQ  --- 7816 message 3416 [0 ffffffff 69 800] ------- [105:255 -1:255 32 0] 
D 63.773619974 _105_ IFQ  --- 7862 message 3428 [0 ffffffff 69 800] ------- [105:255 -1:255 32 0] 
D 63.824891716 _103_ IFQ  --- 8014 message 3404 [0 ffffffff 67 800] ------- [103:255 -1:255 32 0] 
D 63.825554277 _105_ IFQ  --- 7887 message 3416 [0 ffffffff 69 800] ------- [105:255 -1:255 32 0] 
D 64.059701227 _103_ IFQ  --- 8038 message 3404 [0 ffffffff 67 800] ------- [103:255 -1:255 32 0] 
D 64.068409551 _103_ IFQ  --- 8054 message 3404 [0 ffffffff 67 800] ------- [103:255 -1:255 32 0] 
D 64.557610465 _105_ IFQ  --- 7932 message 3416 [0 ffffffff 69 800] ------- [105:255 -1:255 32 0] 
D 64.615201825 _103_ IFQ  --- 8085 message 3404 [0 ffffffff 67 800] ------- [103:255 -1:255 32 0] 
D 64.617808038 _275_ IFQ  --- 7645 message 3380 [0 ffffffff 113 800] ------- [275:255 -1:255 32 0] 
D 64.620556756 _105_ IFQ  --- 7949 message 3416 [0 ffffffff 69 800] ------- [105:255 -1:255 32 0] 
D 64.677931051 _105_ IFQ  --- 7985 message 3416 [0 ffffffff 69 800] ------- [105:255 -1:255 32 0] 
D 64.680981720 _103_ IFQ  --- 8111 message 3416 [0 ffffffff 67 800] ------- [103:255 -1:255 32 0] 
D 64.687029245 _103_ IFQ  --- 8137 message 3416 [0 ffffffff 67 800] ------- [103:255 -1:255 32 0] 
D 64.821051655 _103_ IFQ  --- 8228 message 3416 [0 ffffffff 67 800] ------- [103:255 -1:255 32 0] 
D 64.823104002 _275_ IFQ  --- 7704 message 3368 [0 ffffffff 113 800] ------- [275:255 -1:255 32 0] 
D 65.050573205 _275_ IFQ  --- 7690 message 3380 [0 ffffffff 113 800] ------- [275:255 -1:255 32 0] 
D 65.055604067 _103_ IFQ  --- 8303 message 3452 [0 ffffffff 67 800] ------- [103:255 -1:255 32 0] 
D 65.085736643 _275_ IFQ  --- 7708 message 3368 [0 ffffffff 113 800] ------- [275:255 -1:255 32 0] 
D 65.168933154 _275_ IFQ  --- 7795 message 3380 [0 ffffffff 113 800] ------- [275:255 -1:255 32 0] 
D 65.171217515 _105_ IFQ  --- 8022 message 3416 [0 ffffffff 69 800] ------- [105:255 -1:255 32 0] 
D 65.171736341 _103_ IFQ  --- 8317 message 3464 [0 ffffffff 67 800] ------- [103:255 -1:255 32 0] 
D 65.489446384 _105_ IFQ  --- 8040 message 3416 [0 ffffffff 69 800] ------- [105:255 -1:255 32 0] 
D 65.516022927 _288_ IFQ  --- 8362 message 3464 [0 ffffffff 120 800] ------- [288:255 -1:255 32 0] 
D 65.517033146 _103_ IFQ  --- 8368 message 3464 [0 ffffffff 67 800] ------- [103:255 -1:255 32 0] 
D 65.517950721 _105_ IFQ  --- 8051 message 3416 [0 ffffffff 69 800] ------- [105:255 -1:255 32 0] 
D 65.525752939 _275_ IFQ  --- 7870 message 3392 [0 ffffffff 113 800] ------- [275:255 -1:255 32 0] 
D 65.748674032 _288_ IFQ  --- 8384 message 3464 [0 ffffffff 120 800] ------- [288:255 -1:255 32 0] 
D 65.749959432 _103_ IFQ  --- 8380 message 3464 [0 ffffffff 67 800] ------- [103:255 -1:255 32 0] 
D 65.752679414 _201_ IFQ  --- 8674 message 3464 [0 ffffffff c9 800] ------- [201:255 -1:255 32 0] 
D 65.756083704 _275_ IFQ  --- 7892 message 3380 [0 ffffffff 113 800] ------- [275:255 -1:255 32 0] 
D 65.841041636 _288_ IFQ  --- 8406 message 3464 [0 ffffffff 120 800] ------- [288:255 -1:255 32 0] 
D 65.862601996 _288_ IFQ  --- 8422 message 3464 [0 ffffffff 120 800] ------- [288:255 -1:255 32 0] 
D 65.863588833 _201_ IFQ  --- 8698 message 3452 [0 ffffffff c9 800] ------- [201:255 -1:255 32 0] 
D 65.866642892 _103_ IFQ  --- 8387 message 3464 [0 ffffffff 67 800] ------- [103:255 -1:255 32 0] 
D 65.867850731 _275_ IFQ  --- 7933 message 3380 [0 ffffffff 113 800] ------- [275:255 -1:255 32 0] 
D 65.949573465 _201_ IFQ  --- 8706 message 3452 [0 ffffffff c9 800] ------- [201:255 -1:255 32 0] 
D 65.957060439 _288_ IFQ  --- 8433 message 3464 [0 ffffffff 120 800] ------- [288:255 -1:255 32 0] 
D 65.958107260 _105_ IFQ  --- 8089 message 3416 [0 ffffffff 69 800] ------- [105:255 -1:255 32 0] 
D 65.960251286 _201_ IFQ  --- 8746 message 3452 [0 ffffffff c9 800] ------- [201:255 -1:255 32 0] 
D 65.963700680 _275_ IFQ  --- 7946 message 3380 [0 ffffffff 113 800] ------- [275:255 -1:255 32 0] 
D 66.049420209 _105_ IFQ  --- 8115 message 3428 [0 ffffffff 69 800] ------- [105:255 -1:255 32 0] 
D 66.051705597 _103_ IFQ  --- 8409 message 3464 [0 ffffffff 67 800] ------- [103:255 -1:255 32 0] 
D 66.051762090 _275_ IFQ  --- 7990 message 3380 [0 ffffffff 113 800] ------- [275:255 -1:255 32 0] 
D 66.054958075 _201_ IFQ  --- 8800 message 3452 [0 ffffffff c9 800] ------- [201:255 -1:255 32 0] 
D 66.338800887 _103_ IFQ  --- 8418 message 3464 [0 ffffffff 67 800] ------- [103:255 -1:255 32 0] 
D 66.341128816 _105_ IFQ  --- 8223 message 3428 [0 ffffffff 69 800] ------- [105:255 -1:255 32 0] 
D 66.347267499 _288_ IFQ  --- 8539 message 3488 [0 ffffffff 120 800] ------- [288:255 -1:255 32 0] 
D 66.371929776 _288_ IFQ  --- 8651 message 3476 [0 ffffffff 120 800] ------- [288:255 -1:255 32 0] 
D 66.374388814 _105_ IFQ  --- 8306 message 3452 [0 ffffffff 69 800] ------- [105:255 -1:255 32 0] 
D 66.374827198 _275_ IFQ  --- 8021 message 3380 [0 ffffffff 113 800] ------- [275:255 -1:255 32 0] 
D 66.375713005 _201_ IFQ  --- 8836 message 3452 [0 ffffffff c9 800] ------- [201:255 -1:255 32 0] 
D 66.376824186 _103_ IFQ  --- 8542 message 3476 [0 ffffffff 67 800] ------- [103:255 -1:255 32 0] 
D 66.459465439 _103_ IFQ  --- 8564 message 3464 [0 ffffffff 67 800] ------- [103:255 -1:255 32 0] 
D 66.463246553 _148_ IFQ  --- 8556 message 3464 [0 ffffffff 94 800] ------- [148:255 -1:255 32 0] 
D 66.463708547 _275_ IFQ  --- 8037 message 3380 [0 ffffffff 113 800] ------- [275:255 -1:255 32 0] 
D 66.466578204 _201_ IFQ  --- 8844 message 3452 [0 ffffffff c9 800] ------- [201:255 -1:255 32 0] 
D 66.528895628 _201_ IFQ  --- 8944 message 3452 [0 ffffffff c9 800] ------- [201:255 -1:255 32 0] 
D 66.639852806 _201_ IFQ  --- 8990 message 3452 [0 ffffffff c9 800] ------- [201:255 -1:255 32 0] 
D 66.643254365 _275_ IFQ  --- 8050 message 3380 [0 ffffffff 113 800] ------- [275:255 -1:255 32 0] 
D 66.698874215 _201_ IFQ  --- 9099 message 3452 [0 ffffffff c9 800] ------- [201:255 -1:255 32 0] 
D 66.701600162 _148_ IFQ  --- 8654 message 3464 [0 ffffffff 94 800] ------- [148:255 -1:255 32 0] 
D 66.842701387 _201_ IFQ  --- 9119 message 3452 [0 ffffffff c9 800] ------- [201:255 -1:255 32 0] 
D 66.843835554 _148_ IFQ  --- 8672 message 3464 [0 ffffffff 94 800] ------- [148:255 -1:255 32 0] 
D 66.844336215 _105_ IFQ  --- 8363 message 3464 [0 ffffffff 69 800] ------- [105:255 -1:255 32 0] 
D 66.846593497 _275_ IFQ  --- 8088 message 3380 [0 ffffffff 113 800] ------- [2