M 0.00000 300 (62.74, 42.84, 0.00), (74.99, 10.78), 0.26
D 60.709052847 _291_ IFQ  --- 6978 message 3368 [0 ffffffff 123 800] ------- [291:255 -1:255 32 0] 
D 60.735242038 _104_ IFQ  --- 6924 message 3380 [0 ffffffff 68 800] ------- [104:255 -1:255 32 0] 
D 60.743498044 _291_ IFQ  --- 6988 message 3368 [0 ffffffff 123 800] ------- [291:255 -1:255 32 0] 
D 60.857229227 _291_ IFQ  --- 7077 message 3368 [0 ffffffff 123 800] ------- [291:255 -1:255 32 0] 
D 60.859887418 _104_ IFQ  --- 6960 message 3368 [0 ffffffff 68 800] ------- [104:255 -1:255 32 0] 
D 60.889934508 _291_ IFQ  --- 7080 message 3368 [0 ffffffff 123 800] ------- [291:255 -1:255 32 0] 
D 60.891299151 _104_ IFQ  --- 6977 message 3356 [0 ffffffff 68 800] ------- [104:255 -1:255 32 0] 
D 61.171317768 _291_ IFQ  --- 7083 message 3368 [0 ffffffff 123 800] ------- [291:255 -1:255 32 0] 
D 61.174846574 _162_ IFQ  --- 7096 message 3344 [0 ffffffff a2 800] ------- [162:255 -1:255 32 0] 
D 61.365225322 _104_ IFQ  --- 7076 message 3368 [0 ffffffff 68 800] ------- [104:255 -1:255 32 0] 
D 61.460566362 _104_ IFQ  --- 7079 message 3368 [0 ffffffff 68 800] ------- [104:255 -1:255 32 0] 
D 61.462739774 _200_ IFQ  --- 7173 message 3344 [0 ffffffff c8 800] ------- [200:255 -1:255 32 0] 
D 61.526490446 _185_ IFQ  --- 7097 message 3380 [0 ffffffff b9 800] ------- [185:255 -1:255 32 0] 
D 61.530896993 _200_ IFQ  --- 7185 message 3332 [0 ffffffff c8 800] ------- [200:255 -1:255 32 0] 
D 61.532266633 _291_ IFQ  --- 7095 message 3380 [0 ffffffff 123 800] ------- [291:255 -1:255 32 0] 
D 61.532543569 _201_ IFQ  --- 7174 message 3368 [0 ffffffff c9 800] ------- [201:255 -1:255 32 0] 
D 61.534880611 _162_ IFQ  --- 7101 message 3344 [0 ffffffff a2 800] ------- [162:255 -1:255 32 0] 
D 61.535143470 _104_ IFQ  --- 7082 message 3368 [0 ffffffff 68 800] ------- [104:255 -1:255 32 0] 
D 61.644652877 _291_ IFQ  --- 7100 message 3380 [0 ffffffff 123 800] ------- [291:255 -1:255 32 0] 
D 61.646385009 _162_ IFQ  --- 7128 message 3344 [0 ffffffff a2 800] ------- [162:255 -1:255 32 0] 
D 61.647799805 _201_ IFQ  --- 7183 message 3356 [0 ffffffff c9 800] ------- [201:255 -1:255 32 0] 
D 61.649398181 _185_ IFQ  --- 7150 message 3380 [0 ffffffff b9 800] ------- [185:255 -1:255 32 0] 
D 61.651424737 _104_ IFQ  --- 7099 message 3380 [0 ffffffff 68 800] ------- [104:255 -1:255 32 0] 
D 61.678967262 _185_ IFQ  --- 7146 message 3380 [0 ffffffff b9 800] ------- [185:255 -1:255 32 0] 
D 61.680988173 _291_ IFQ  --- 7144 message 3380 [0 ffffffff 123 800] ------- [291:255 -1:255 32 0] 
D 61.682758102 _200_ IFQ  --- 7215 message 3332 [0 ffffffff c8 800] ------- [200:255 -1:255 32 0] 
D 61.682872111 _104_ IFQ  --- 7094 message 3380 [0 ffffffff 68 800] ------- [104:255 -1:255 32 0] 
D 61.683123072 _162_ IFQ  --- 7148 message 3344 [0 ffffffff a2 800] ------- [162:255 -1:255 32 0] 
D 61.732262607 _185_ IFQ  --- 7172 message 3380 [0 ffffffff b9 800] ------- [185:255 -1:255 32 0] 
D 61.737192256 _162_ IFQ  --- 7175 message 3344 [0 ffffffff a2 800] ------- [162:255 -1:255 32 0] 
D 61.737834631 _200_ IFQ  --- 7220 message 3332 [0 ffffffff c8 800] ------- [200:255 -1:255 32 0] 
D 61.738631972 _291_ IFQ  --- 7170 message 3380 [0 ffffffff 123 800] ------- [291:255 -1:255 32 0] 
D 61.739015997 _104_ IFQ  --- 7124 message 3380 [0 ffffffff 68 800] ------- [104:255 -1:255 32 0] 
D 61.764252953 _185_ IFQ  --- 7187 message 3368 [0 ffffffff b9 800] ------- [185:255 -1:255 32 0] 
D 61.768585657 _200_ IFQ  --- 7233 message 3332 [0 ffffffff c8 800] ------- [200:255 -1:255 32 0] 
D 61.768879167 _104_ IFQ  --- 7145 message 3380 [0 ffffffff 68 800] ------- [104:255 -1:255 32 0] 
D 61.772066927 _162_ IFQ  --- 7182 message 3344 [0 ffffffff a2 800] ------- [162:255 -1:255 32 0] 
D 61.773197546 _291_ IFQ  --- 7186 message 3368 [0 ffffffff 123 800] ------- [291:255 -1:255 32 0] 
D 61.773442636 _201_ IFQ  --- 7214 message 3356 [0 ffffffff c9 800] ------- [201:255 -1:255 32 0] 
D 61.800172231 _162_ IFQ  --- 7213 message 3344 [0 ffffffff a2 800] ------- [162:255 -1:255 32 0] 
D 61.852320658 _162_ IFQ  --- 7222 message 3344 [0 ffffffff a2 800] ------- [162:255 -1:255 32 0] 
D 61.853286150 _104_ IFQ  --- 7171 message 3380 [0 ffffffff 68 800] ------- [104:255 -1:255 32 0] 
D 61.855803619 _185_ IFQ  --- 7219 message 3368 [0 ffffffff b9 800] ------- [185:255 -1:255 32 0] 
D 61.855916710 _200_ IFQ  --- 7258 message 3332 [0 ffffffff c8 800] ------- [200:255 -1:255 32 0] 
D 61.859324308 _291_ IFQ  --- 7203 message 3368 [0 ffffffff 123 800] ------- [291:255 -1:255 32 0] 
D 61.890188815 _104_ IFQ  --- 7184 message 3368 [0 ffffffff 68 800] ------- [104:255 -1:255 32 0] 
D 61.890951561 _185_ IFQ  --- 7216 message 3368 [0 ffffffff b9 800] ------- [185:255 -1:255 32 0] 
D 61.892100207 _291_ IFQ  --- 7212 message 3368 [0 ffffffff 123 800] ------- [291:255 -1:255 32 0] 
D 61.895053844 _200_ IFQ  --- 7324 message 3344 [0 ffffffff c8 800] ------- [200:255 -1:255 32 0] 
D 61.898859285 _162_ IFQ  --- 7237 message 3344 [0 ffffffff a2 800] ------- [162:255 -1:255 32 0] 
D 61.951000790 _291_ IFQ  --- 7217 message 3368 [0 ffffffff 123 800] ------- [291:255 -1:255 32 0] 
D 61.951137652 _200_ IFQ  --- 7378 message 3356 [0 ffffffff c8 800] ------- [200:255 -1:255 32 0] 
D 61.954153693 _185_ IFQ  --- 7235 message 3368 [0 ffffffff b9 800] ------- [185:255 -1:255 32 0] 
D 61.957438198 _104_ IFQ  --- 7211 message 3368 [0 ffffffff 68 800] ------- [104:255 -1:255 32 0] 
D 61.957934433 _162_ IFQ  --- 7327 message 3356 [0 ffffffff a2 800] ------- [162:255 -1:255 32 0] 
D 61.959438902 _291_ IFQ  --- 7236 message 3368 [0 ffffffff 123 800] ------- [291:255 -1:255 32 0] 
D 62.064783293 _104_ IFQ  --- 7218 message 3368 [0 ffffffff 68 800] ------- [104:255 -1:255 32 0] 
D 62.065251804 _291_ IFQ  --- 7381 message 3392 [0 ffffffff 123 800] ------- [291:255 -1:255 32 0] 
D 62.066050357 _162_ IFQ  --- 7382 message 3368 [0 ffffffff a2 800] ------- [162:255 -1:255 32 0] 
D 62.068224038 _185_ IFQ  --- 7257 message 3368 [0 ffffffff b9 800] ------- [185:255 -1:255 32 0] 
D 62.068993038 _200_ IFQ  --- 7482 message 3368 [0 ffffffff c8 800] ------- [200:255 -1:255 32 0] 
D 62.072196573 _291_ IFQ  --- 7459 message 3404 [0 ffffffff 123 800] ------- [291:255 -1:255 32 0] 
D 62.072818202 _162_ IFQ  --- 7460 message 3380 [0 ffffffff a2 800] ------- [162:255 -1:255 32 0] 
D 62.073370959 _200_ IFQ  --- 7498 message 3356 [0 ffffffff c8 800] ------- [200:255 -1:255 32 0] 
D 62.075663562 _104_ IFQ  --- 7234 message 3368 [0 ffffffff 68 800] ------- [104:255 -1:255 32 0] 
D 62.156964578 _162_ IFQ  --- 7480 message 3380 [0 ffffffff a2 800] ------- [162:255 -1:255 32 0] 
D 62.158442672 _200_ IFQ  --- 7508 message 3344 [0 ffffffff c8 800] ------- [200:255 -1:255 32 0] 
D 62.159286018 _185_ IFQ  --- 7377 message 3392 [0 ffffffff b9 800] ------- [185:255 -1:255 32 0] 
D 62.159684521 _185_ IFQ  --- 7455 message 3404 [0 ffffffff b9 800] ------- [185:255 -1:255 32 0] 
D 62.160407715 _201_ IFQ  --- 7221 message 3356 [0 ffffffff c9 800] ------- [201:255 -1:255 32 0] 
D 62.160664308 _162_ IFQ  --- 7501 message 3368 [0 ffffffff a2 800] ------- [162:255 -1:255 32 0] 
D 62.162448352 _200_ IFQ  --- 7536 message 3344 [0 ffffffff c8 800] ------- [200:255 -1:255 32 0] 
D 62.165603211 _104_ IFQ  --- 7256 message 3368 [0 ffffffff 68 800] ------- [104:255 -1:255 32 0] 
D 62.166579482 _291_ IFQ  --- 7479 message 3404 [0 ffffffff 123 800] ------- [291:255 -1:255 32 0] 
D 62.222872062 _162_ IFQ  --- 7506 message 3356 [0 ffffffff a2 800] ------- [162:255 -1:255 32 0] 
D 62.223911936 _200_ IFQ  --- 7550 message 3344 [0 ffffffff c8 800] ------- [200:255 -1:255 32 0] 
D 62.224393731 _185_ IFQ  --- 7483 message 3404 [0 ffffffff b9 800] ------- [185:255 -1:255 32 0] 
D 62.252136135 _200_ IFQ  --- 7570 message 3356 [0 ffffffff c8 800] ------- [200:255 -1:255 32 0] 
D 62.253175767 _104_ IFQ  --- 7279 message 3368 [0 ffffffff 68 800] ------- [104:255 -1:255 32 0] 
D 62.255881838 _185_ IFQ  --- 7499 message 3392 [0 ffffffff b9 800] ------- [185:255 -1:255 32 0] 
D 62.281752661 _185_ IFQ  --- 7510 message 3380 [0 ffffffff b9 800] ------- [185:255 -1:255 32 0] 
D 62.282464819 _200_ IFQ  --- 7596 message 3344 [0 ffffffff c8 800] ------- [200:255 -1:255 32 0] 
D 62.283526466 _104_ IFQ  --- 7325 message 3380 [0 ffffffff 68 800] ------- [104:255 -1:255 32 0] 
D 62.284331106 _291_ IFQ  --- 7502 message 3392 [0 ffffffff 123 800] ------- [291:255 -1:255 32 0] 
D 62.285737627 _162_ IFQ  --- 7529 message 3356 [0 ffffffff a2 800] ------- [162:255 -1:255 32 0] 
D 62.395896418 _104_ IFQ  --- 7359 message 3392 [0 ffffffff 68 800] ------- [104:255 -1:255 32 0] 
D 62.396224125 _291_ IFQ  --- 7511 message 3380 [0 ffffffff 123 800] ------- [291:255 -1:255 32 0] 
D 62.397450023 _200_ IFQ  --- 7639 message 3344 [0 ffffffff c8 800] ------- [200:255 -1:255 32 0] 
D 62.400315824 _162_ IFQ  --- 7531 message 3356 [0 ffffffff a2 800] ------- [162:255 -1:255 32 0] 
D 62.401612037 _200_ IFQ  --- 7654 message 3344 [0 ffffffff c8 800] ------- [200:255 -1:255 32 0] 
D 62.403694389 _162_ IFQ  --- 7547 message 3356 [0 ffffffff a2 800] ------- [162:255 -1:255 32 0] 
D 62.407601259 _185_ IFQ  --- 7537 message 3380 [0 ffffffff b9 800] ------- [185:255 -1:255 32 0] 
D 62.491367869 _200_ IFQ  --- 7660 message 3344 [0 ffffffff c8 800] ------- [200:255 -1:255 32 0] 
D 62.493846808 _162_ IFQ  --- 7554 message 3356 [0 ffffffff a2 800] ------- [162:255 -1:255 32 0] 
D 62.494249853 _185_ IFQ  --- 7551 message 3380 [0 ffffffff b9 800] ------- [185:255 -1:255 32 0] 
D 62.552154589 _200_ IFQ  --- 7678 message 3344 [0 ffffffff c8 800] ------- [200:255 -1:255 32 0] 
D 62.580283658 _185_ IFQ  --- 7556 message 3392 [0 ffffffff b9 800] ------- [185:255 -1:255 32 0] 
D 62.584218642 _162_ IFQ  --- 7574 message 3368 [0 ffffffff a2 800] ------- [162:255 -1:255 32 0] 
D 62.584915252 _291_ IFQ  --- 7526 message 3380 [0 ffffffff 123 800] ------- [291:255 -1:255 32 0] 
D 62.585441970 _200_ IFQ  --- 7701 message 3344 [0 ffffffff c8 800] ------- [200:255 -1:255 32 0] 
D 62.590397659 _152_ IFQ  --- 7573 message 3380 [0 ffffffff 98 800] ------- [152:255 -1:255 32 0] 
D 62.611547184 _152_ IFQ  --- 7600 message 3380 [0 ffffffff 98 800] ------- [152:255 -1:255 32 0] 
D 62.612088009 _162_ IFQ  --- 7601 message 3368 [0 ffffffff a2 800] ------- [162:255 -1:255 32 0] 
D 62.615482592 _185_ IFQ  --- 7571 message 3392 [0 ffffffff b9 800] ------- [185:255 -1:255 32 0] 
D 62.619226620 _200_ IFQ  --- 7693 message 3344 [0 ffffffff c8 800] ------- [200:255 -1:255 32 0] 
D 62.641771759 _200_ IFQ  --- 7712 message 3332 [0 ffffffff c8 800] ------- [200:255 -1:255 32 0] 
D 62.642131707 _152_ IFQ  --- 7636 message 3368 [0 ffffffff 98 800] ------- [152:255 -1:255 32 0] 
D 62.644024309 _185_ IFQ  --- 7595 message 3392 [0 ffffffff b9 800] ------- [185:255 -1:255 32 0] 
D 62.647349225 _162_ IFQ  --- 7637 message 3368 [0 ffffffff a2 800] ------- [162:255 -1:255 32 0] 
D 62.735980976 _200_ IFQ  --- 7736 message 3332 [0 ffffffff c8 800] ------- [200:255 -1:255 32 0] 
D 62.739671121 _185_ IFQ  --- 7620 message 3404 [0 ffffffff b9 800] ------- [185:255 -1:255 32 0] 
D 62.742824487 _152_ IFQ  --- 7656 message 3368 [0 ffffffff 98 800] ------- [152:255 -1:255 32 0] 
D 62.748129557 _152_ IFQ  --- 7703 message 3368 [0 ffffffff 98 800] ------- [152:255 -1:255 32 0] 
D 62.769763531 _200_ IFQ  --- 7792 message 3356 [0 ffffffff c8 800] ------- [200:255 -1:255 32 0] 
D 62.773933021 _162_ IFQ  --- 7657 message 3368 [0 ffffffff a2 800] ------- [162:255 -1:255 32 0] 
D 62.776539697 _185_ IFQ  --- 7640 message 3392 [0 ffffffff b9 800] ------- [185:255 -1:255 32 0] 
D 62.776724828 _152_ IFQ  --- 7691 message 3368 [0 ffffffff 98 800] ------- [152:255 -1:255 32 0] 
D 62.803084700 _185_ IFQ  --- 7653 message 3392 [0 ffffffff b9 800] ------- [185:255 -1:255 32 0] 
D 62.803684630 _152_ IFQ  --- 7709 message 3356 [0 ffffffff 98 800] ------- [152:255 -1:255 32 0] 
D 62.804390770 _162_ IFQ  --- 7697 message 3368 [0 ffffffff a2 800] ------- [162:255 -1:255 32 0] 
D 62.806709558 _200_ IFQ  --- 7816 message 3344 [0 ffffffff c8 800] ------- [200:255 -1:255 32 0] 
D 62.834566925 _162_ IFQ  --- 7704 message 3368 [0 ffffffff a2 800] ------- [162:255 -1:255 32 0] 
D 62.837273404 _185_ IFQ  --- 7659 message 3392 [0 ffffffff b9 800] ------- [185:255 -1:255 32 0] 
D 62.838168003 _152_ IFQ  --- 7723 message 3344 [0 ffffffff 98 800] ------- [152:255 -1:255 32 0] 
D 62.871045493 _152_ IFQ  --- 7767 message 3344 [0 ffffffff 98 800] ------- [152:255 -1:255 32 0] 
D 62.894174785 _162_ IFQ  --- 7708 message 3356 [0 ffffffff a2 800] ------- [162:255 -1:255 32 0] 
D 62.897403579 _152_ IFQ  --- 7818 message 3356 [0 ffffffff 98 800] ------- [152:255 -1:255 32 0] 
D 62.923361133 _152_ IFQ  --- 7826 message 3356 [0 ffffffff 98 800] ------- [152:255 -1:255 32 0] 
D 62.924621774 _185_ IFQ  --- 7679 message 3392 [0 ffffffff b9 800] ------- [185:255 -1:255 32 0] 
D 62.927381352 _152_ IFQ  --- 7860 message 3356 [0 ffffffff 98 800] ------- [152:255 -1:255 32 0] 
D 62.928828280 _162_ IFQ  --- 7738 message 3356 [0 ffffffff a2 800] ------- [162:255 -1:255 32 0] 
D 62.929755473 _200_ IFQ  --- 7824 message 3344 [0 ffffffff c8 800] ------- [200:255 -1:255 32 0] 
D 63.073550659 _185_ IFQ  --- 7695 message 3392 [0 ffffffff b9 800] ------- [185:255 -1:255 32 0] 
D 63.075653516 _185_ IFQ  --- 7700 message 3392 [0 ffffffff b9 800] ------- [185:255 -1:255 32 0] 
D 63.079566874 _200_ IFQ  --- 7861 message 3344 [0 ffffffff c8 800] ------- [200:255 -1:255 32 0] 
D 63.080402381 _152_ IFQ  --- 7880 message 3356 [0 ffffffff 98 800] ------- [152:255 -1:255 32 0] 
D 63.080491418 _200_ IFQ  --- 7876 message 3344 [0 ffffffff c8 800] ------- [200:255 -1:255 32 0] 
D 63.132875800 _162_ IFQ  --- 7768 message 3356 [0 ffffffff a2 800] ------- [162:255 -1:255 32 0] 
D 63.134897769 _200_ IFQ  --- 7889 message 3344 [0 ffffffff c8 800] ------- [200:255 -1:255 32 0] 
D 63.135086298 _152_ IFQ  --- 7882 message 3356 [0 ffffffff 98 800] ------- [152:255 -1:255 32 0] 
D 63.142583487 _185_ IFQ  --- 7713 message 3380 [0 ffffffff b9 800] ------- [185:255 -1:255 32 0] 
D 63.196484639 _185_ IFQ  --- 7735 message 3380 [0 ffffffff b9 800] ------- [185:255 -1:255 32 0] 
D 63.199511543 _162_ IFQ  --- 7819 message 3368 [0 ffffffff a2 800] ------- [162:255 -1:255 32 0] 
D 63.199726641 _152_ IFQ  --- 7909 message 3356 [0 ffffffff 98 800] ------- [152:255 -1:255 32 0] 
D 63.201154403 _200_ IFQ  --- 7907 message 3368 [0 ffffffff c8 800] ------- [200:255 -1:255 32 0] 
D 63.257364466 _200_ IFQ  --- 7917 message 3368 [0 ffffffff c8 800] ------- [200:255 -1:255 32 0] 
D 63.259328700 _152_ IFQ  --- 7939 message 3356 [0 ffffffff 98 800] ------- [152:255 -1:255 32 0] 
D 63.260788034 _185_ IFQ  --- 7746 message 3380 [0 ffffffff b9 800] ------- [185:255 -1:255 32 0] 
D 63.263085231 _162_ IFQ  --- 7827 message 3368 [0 ffffffff a2 800] ------- [162:255 -1:255 32 0] 
D 63.426444721 _200_ IFQ  --- 7924 message 3368 [0 ffffffff c8 800] ------- [200:255 -1:255 32 0] 
D 63.428620249 _185_ IFQ  --- 7815 message 3392 [0 ffffffff b9 800] ------- [185:255 -1:255 32 0] 
D 63.568365559 _200_ IFQ  --- 7937 message 3368 [0 ffffffff c8 800] ------- [200:255 -1:255 32 0] 
D 63.568912214 _185_ IFQ  --- 7823 message 3392 [0 ffffffff b9 800] ------- [185:255 -1:255 32 0] 
D 63.651398634 _200_ IFQ  --- 7958 message 3368 [0 ffffffff c8 800] ------- [200:255 -1:255 32 0] 
D 63.657854788 _162_ IFQ  --- 7864 message 3368 [0 ffffffff a2 800] ------- [162:255 -1:255 32 0] 
D 63.683030556 _200_ IFQ  --- 7964 message 3368 [0 ffffffff c8 800] ------- [200:255 -1:255 32 0] 
D 63.684611165 _185_ IFQ  --- 7862 message 3392 [0 ffffffff b9 800] ------- [185:255 -1:255 32 0] 
D 63.685870245 _162_ IFQ  --- 7881 message 3368 [0 ffffffff a2 800] ------- [162:255 -1:255 32 0] 
D 63.750526806 _245_ IFQ  --- 8203 message 3404 [0 ffffffff f5 800] ------- [245:255 -1:255 32 0] 
D 63.750876847 _185_ IFQ  --- 7875 message 3392 [0 ffffffff b9 800] ------- [185:255 -1:255 32 0] 
D 63.752723129 _162_ IFQ  --- 7887 message 3368 [0 ffffffff a2 800] ------- [162:255 -1:255 32 0] 
D 63.813304240 _245_ IFQ  --- 8301 message 3404 [0 ffffffff f5 800] ------- [245:255 -1:255 32 0] 
D 63.861169408 _185_ IFQ  --- 7906 message 3392 [0 ffffffff b9 800] ------- [185:255 -1:255 32 0] 
D 63.867288578 _245_ IFQ  --- 8328 message 3404 [0 ffffffff f5 800] ------- [245:255 -1:255 32 0] 
D 63.897050766 _245_ IFQ  --- 8386 message 3404 [0 ffffffff f5 800] ------- [245:255 -1:255 32 0] 
D 63.901163458 _162_ IFQ  --- 7910 message 3368 [0 ffffffff a2 800] ------- [162:255 -1:255 32 0] 
D 63.903136911 _200_ IFQ  --- 7998 message 3368 [0 ffffffff c8 800] ------- [200:255 -1:255 32 0] 
D 63.905868921 _185_ IFQ  --- 7925 message 3392 [0 ffffffff b9 800] ------- [185:255 -1:255 32 0] 
D 63.925301933 _245_ IFQ  --- 8400 message 3404 [0 ffffffff f5 800] ------- [245:255 -1:255 32 0] 
D 63.928580909 _162_ IFQ  --- 7922 message 3368 [0 ffffffff a2 800] ------- [162:255 -1:255 32 0] 
D 63.928966688 _200_ IFQ  --- 8034 message 3368 [0 ffffffff c8 800] ------- [200:255 -1:255 32 0] 
D 63.929866525 _185_ IFQ  --- 7960 message 3404 [0 ffffffff b9 800] ------- [185:255 -1:255 32 0] 
D 63.932717924 _152_ IFQ  --- 7955 message 3356 [0 ffffffff 98 800] ------- [152:255 -1:255 32 0] 
D 63.957852984 _185_ IFQ  --- 8081 message 3404 [0 ffffffff b9 800] ------- [185:255 -1:255 32 0] 
D 63.959781239 _245_ IFQ  --- 8514 message 3404 [0 ffffffff f5 800] ------- [245:255 -1:255 32 0] 
D 63.961763403 _200_ IFQ  --- 8058 message 3368 [0 ffffffff c8 800] ------- [200:255 -1:255 32 0] 
D 63.965158203 _152_ IFQ  --- 7996 message 3356 [0 ffffffff 98 800] ------- [152:255 -1:255 32 0] 
D 63.966342850 _162_ IFQ  --- 7928 message 3368 [0 ffffffff a2 800] ------- [162:255 -1:255 32 0] 
D 64.070062111 _245_ IFQ  --- 8517 message 3404 [0 ffffffff f5 800] ------- [245:255 -1:255 32 0] 
D 64.070455708 _152_ IFQ  --- 8036 message 3356 [0 ffffffff 98 800] ------- [152:255 -1:255 32 0] 
D 64.070745787 _200_ IFQ  --- 8142 message 3368 [0 ffffffff c8 800] ------- [200:255 -1:255 32 0] 
D 64.073595761 _152_ IFQ  --- 8060 message 3356 [0 ffffffff 98 800] ------- [152:255 -1:255 32 0] 
D 64.083109610 _162_ IFQ  --- 7956 message 3368 [0 ffffffff a2 800] ------- [162:255 -1:255 32 0] 
D 64.083858046 _200_ IFQ  --- 8175 message 3368 [0 ffffffff c8 800] ------- [200:255 -1:255 32 0] 
D 64.084083543 _185_ IFQ  --- 8143 message 3404 [0 ffffffff b9 800] ------- [185:255 -1:255 32 0] 
D 64.084661312 _245_ IFQ  --- 8590 message 3404 [0 ffffffff f5 800] ------- [245:255 -1:255 32 0] 
D 64.087804880 _152_ IFQ  --- 8086 message 3356 [0 ffffffff 98 800] ------- [152:255 -1:255 32 0] 
D 64.112615124 _162_ IFQ  --- 7993 message 3368 [0 ffffffff a2 800] ------- [162:255 -1:255 32 0] 
D 64.115361873 _185_ IFQ  --- 8178 message 3404 [0 ffffffff b9 800] ------- [185:255 -1:255 32 0] 
D 64.115575179 _152_ IFQ  --- 8169 message 3356 [0 ffffffff 98 800] ------- [152:255 -1:255 32 0] 
D 64.116649823 _245_ IFQ  --- 8612 message 3404 [0 ffffffff f5 800] ------- [245:255 -1:255 32 0] 
D 64.119042623 _200_ IFQ  --- 8206 message 3368 [0 ffffffff c8 800] ------- [200:255 -1:255 32 0] 
D 64.281081765 _185_ IFQ  --- 8207 message 3404 [0 ffffffff b9 800] ------- [185:255 -1:255 32 0] 
D 64.284814637 _200_ IFQ  --- 8218 message 3368 [0 ffffffff c8 800] ------- [200:255 -1:255 32 0] 
D 64.288422785 _245_ IFQ  --- 8624 message 3404 [0 ffffffff f5 800] ------- [245:255 -1:255 32 0] 
D 64.288859754 _162_ IFQ  --- 8037 message 3368 [0 ffffffff a2 800] ------- [162:255 -1:255 32 0] 
D 64.312703325 _103_ IFQ  --- 8171 message 3380 [0 ffffffff 67 800] ------- [103:255 -1:255 32 0] 
D 64.315566283 _245_ IFQ  --- 8634 message 3404 [0 ffffffff f5 800] ------- [245:255 -1:255 32 0] 
D 64.315590566 _162_ IFQ  --- 8062 message 3368 [0 ffffffff a2 800] ------- [162:255 -1:255 32 0] 
D 64.319382436 _200_ IFQ  --- 8304 message 3368 [0 ffffffff c8 800] ------- [200:255 -1:255 32 0] 
D 64.321159056 _185_ IFQ  --- 8219 message 3404 [0 ffffffff b9 800] ------- [185:255 -1:255 32 0] 
D 64.374981811 _245_ IFQ  --- 8658 message 3404 [0 ffffffff f5 800] ------- [245:255 -1:255 32 0] 
D 64.375725636 _152_ IFQ  --- 8202 message 3356 [0 ffffffff 98 800] ------- [152:255 -1:255 32 0] 
D 64.377362580 _185_ IFQ  --- 8291 message 3404 [0 ffffffff b9 800] ------- [185:255 -1:255 32 0] 
D 64.380876805 _103_ IFQ  --- 8305 message 3380 [0 ffffffff 67 800] ------- [103:255 -1:255 32 0] 
D 64.381273886 _162_ IFQ  --- 8087 message 3368 [0 ffffffff a2 800] ------- [162:255 -1:255 32 0] 
D 64.413507794 _152_ IFQ  --- 8216 message 3356 [0 ffffffff 98 800] ------- [152:255 -1:255 32 0] 
D 64.470321738 _185_ IFQ  --- 8303 message 3404 [0 ffffffff b9 800] ------- [185:255 -1:255 32 0] 
D 64.472046079 _245_ IFQ  --- 8670 message 3404 [0 ffffffff f5 800] ------- [245:255 -1:255 32 0] 
D 64.474402152 _152_ IFQ  --- 8290 message 3356 [0 ffffffff 98 800] ------- [152:255 -1:255 32 0] 
D 64.475839224 _103_ IFQ  --- 8320 message 3380 [0 ffffffff 67 800] ------- [103:255 -1:255 32 0] 
D 64.482322340 _103_ IFQ  --- 8402 message 3380 [0 ffffffff 67 800] ------- [103:255 -1:255 32 0] 
D 64.499800993 _245_ IFQ  --- 8724 message 3404 [0 ffffffff f5 800] ------- [245:255 -1:255 32 0] 
D 64.501909646 _200_ IFQ  --- 8323 message 3368 [0 ffffffff c8 800] ------- [200:255 -1:255 32 0] 
D 64.504461924 _152_ IFQ  --- 8309 message 3356 [0 ffffffff 98 800] ------- [152:255 -1:255 32 0] 
D 64.505425243 _103_ IFQ  --- 8580 message 3380 [0 ffffffff 67 800] ------- [103:255 -1:255 32 0] 
D 64.505538252 _98_ IFQ  --- 8176 message 3356 [0 ffffffff 62 800] ------- [98:255 -1:255 32 0] 
D 64.509205008 _185_ IFQ  --- 8326 message 3404 [0 ffffffff b9 800] ------- [185:255 -1:255 32 0] 
D 64.587625823 _245_ IFQ  --- 8746 message 3404 [0 ffffffff f5 800] ------- [245:255 -1:255 32 0] 
D 64.588035386 _200_ IFQ  --- 8345 message 3368 [0 ffffffff c8 800] ------- [200:255 -1:255 32 0] 
D 64.591391011 _98_ IFQ  --- 8311 message 3356 [0 ffffffff 62 800] ------- [98:255 -1:255 32 0] 
D 64.593248309 _185_ IFQ  --- 8347 message 3404 [0 ffffffff b9 800] ------- [185:255 -1:255 32 0] 
D 64.597244807 _152_ IFQ  --- 8316 message 3356 [0 ffffffff 98 800] ------- [152:255 -1:255 32 0] 
D 64.647518671 _152_ IFQ  --- 8340 message 3356 [0 ffffffff 98 800] ------- [152:255 -1:255 32 0] 
D 64.648595208 _98_ IFQ  --- 8319 message 3356 [0 ffffffff 62 800] ------- [98:255 -1:255 32 0] 
D 64.649117708 _200_ IFQ  --- 8379 message 3368 [0 ffffffff c8 800] ------- [200:255 -1:255 32 0] 
D 64.653284867 _185_ IFQ  --- 8378 message 3404 [0 ffffffff b9 800] ------- [185:255 -1:255 32 0] 
D 64.654353527 _162_ IFQ  --- 8140 message 3368 [0 ffffffff a2 800] ------- [162:255 -1:255 32 0] 
D 64.655495487 _103_ IFQ  --- 8592 message 3380 [0 ffffffff 67 800] ------- [103:255 -1:255 32 0] 
D 64.741741064 _98_ IFQ  --- 8336 message 3356 [0 ffffffff 62 800] ------- [98:255 -1:255 32 0] 
D 64.744089529 _245_ IFQ  --- 8755 message 3404 [0 ffffffff f5 800] ------- [245:255 -1:255 32 0] 
D 64.745964687 _103_ IFQ  --- 8628 message 3380 [0 ffffffff 67 800] ------- [103:255 -1:255 32 0] 
D 64.746523199 _152_ IFQ  --- 8387 message 3356 [0 ffffffff 98 800] ------- [152:255 -1:255 32 0] 
D 64.747895746 _200_ IFQ  --- 8404 message 3368 [0 ffffffff c8 800] ------- [200:255 -1:255 32 0] 
D 64.752822786 _152_ IFQ  --- 8494 message 3356 [0 ffffffff 98 800] ------- [152:255 -1:255 32 0] 
D 64.774441281 _185_ IFQ  --- 8504 message 3404 [0 ffffffff b9 800] ------- [185:255 -1:255 32 0] 
D 64.781719351 _200_ IFQ  --- 8505 message 3368 [0 ffffffff c8 800] ------- [200:255 -1:255 32 0] 
D 64.832817239 _245_ IFQ  --- 8769 message 3404 [0 ffffffff f5 800] ------- [245:255 -1:255 32 0] 
D 64.835739226 _98_ IFQ  --- 8390 message 3356 [0 ffffffff 62 800] ------- [98:255 -1:255 32 0] 
D 64.836328117 _152_ IFQ  --- 8512 message 3356 [0 ffffffff 98 800] ------- [152:255 -1:255 32 0] 
D 64.836822094 _185_ IFQ  --- 8588 message 3404 [0 ffffffff b9 800] ------- [185:255 -1:255 32 0] 
D 64.838458202 _103_ IFQ  --- 8649 message 3380 [0 ffffffff 67 800] ------- [103:255 -1:255 32 0] 
D 64.839600510 _200_ IFQ  --- 8585 message 3368 [0 ffffffff c8 800] ------- [200:255 -1:255 32 0] 
D 64.864248653 _200_ IFQ  --- 8630 message 3368 [0 ffffffff c8 800] ------- [200:255 -1:255 32 0] 
D 64.865820004 _185_ IFQ  --- 8631 message 3404 [0 ffffffff b9 800] ------- [185:255 -1:255 32 0] 
D 64.865893187 _66_ IFQ  --- 8197 message 3380 [0 ffffffff 42 800] ------- [66:255 -1:255 32 0] 
D 64.866005080 _152_ IFQ  --- 8533 message 3356 [0 ffffffff 98 800] ------- [152:255 -1:255 32 0] 
D 64.867032300 _103_ IFQ  --- 8667 message 3380 [0 ffffffff 67 800] ------- [103:255 -1:255 32 0] 
D 64.869480309 _245_ IFQ  --- 8790 message 3404 [0 ffffffff f5 800] ------- [245:255 -1:255 32 0] 
D 64.872288486 _98_ IFQ  --- 8581 message 3356 [0 ffffffff 62 800] ------- [98:255 -1:255 32 0] 
D 64.873055695 _162_ IFQ  --- 8170 message 3368 [0 ffffffff a2 800] ------- [162:255 -1:255 32 0] 
D 64.896487835 _103_ IFQ  --- 8725 message 3380 [0 ffffffff 67 800] ------- [103:255 -1:255 32 0] 
D 64.896993742 _185_ IFQ  --- 8651 message 3404 [0 ffffffff b9 800] ------- [185:255 -1:255 32 0] 
D 64.897850752 _152_ IFQ  --- 8652 message 3356 [0 ffffffff 98 800] ------- [152:255 -1:255 32 0] 
D 64.898690068 _98_ IFQ  --- 8626 message 3356 [0 ffffffff 62 800] ------- [98:255 -1:255 32 0] 
D 64.899478568 _245_ IFQ  --- 8824 message 3416 [0 ffffffff f5 800] ------- [245:255 -1:255 32 0] 
D 64.902387176 _185_ IFQ  --- 8729 message 3404 [0 ffffffff b9 800] ------- [185:255 -1:255 32 0] 
D 64.903062493 _200_ IFQ  --- 8727 message 3368 [0 ffffffff c8 800] ------- [200:255 -1:255 32 0] 
D 65.039659377 _98_ IFQ  --- 8659 message 3356 [0 ffffffff 62 800] ------- [98:255 -1:255 32 0] 
D 65.039700888 _245_ IFQ  --- 8864 message 3404 [0 ffffffff f5 800] ------- [245:255 -1:255 32 0] 
D 65.039924814 _185_ IFQ  --- 8743 message 3404 [0 ffffffff b9 800] ------- [185:255 -1:255 32 0] 
D 65.040470628 _152_ IFQ  --- 8720 message 3356 [0 ffffffff 98 800] ------- [152:255 -1:255 32 0] 
D 65.046458031 _200_ IFQ  --- 8745 message 3368 [0 ffffffff c8 800] ------- [200:255 -1:255 32 0] 
D 65.071178469 _152_ IFQ  --- 8748 message 3356 [0 ffffffff 98 800] ------- [152:255 -1:255 32 0] 
D 65.071945331 _185_ IFQ  --- 8772 message 3404 [0 ffffffff b9 800] ------- [185:255 -1:255 32 0] 
D 65.076924972 _200_ IFQ  --- 8771 message 3368 [0 ffffffff c8 800] ------- [200:255 -1:255 32 0] 
D 65.077295356 _103_ IFQ  --- 8744 message 3380 [0 ffffffff 67 800] ------- [103:255 -1:255 32 0] 
D 65.078711422 _245_ IFQ  --- 8876 message 3404 [0 ffffffff f5 800] ------- [245:255 -1:255 32 0] 
D 65.080130142 _98_ IFQ  --- 8671 message 3356 [0 ffffffff 62 800] ------- [98:255 -1:255 32 0] 
D 65.137260119 _103_ IFQ  --- 8770 message 3380 [0 ffffffff 67 800] ------- [103:255 -1:255 32 0] 
D 65.272317404 _152_ IFQ  --- 8767 message 3356 [0 ffffffff 98 800] ------- [152:255 -1:255 32 0] 
D 65.272787043 _200_ IFQ  --- 8785 message 3368 [0 ffffffff c8 800] ------- [200:255 -1:255 32 0] 
D 65.275703182 _98_ IFQ  --- 8722 message 3356 [0 ffffffff 62 800] ------- [98:255 -1:255 32 0] 
D 65.277806492 _245_ IFQ  --- 8911 message 3404 [0 ffffffff f5 800] ------- [245:255 -1:255 32 0] 
D 65.279180900 _245_ IFQ  --- 8940 message 3404 [0 ffffffff f5 800] ------- [245:255 -1:255 32 0] 
D 65.310797492 _103_ IFQ  --- 8782 message 3380 [0 ffffffff 67 800] ------- [103:255 -1:255 32 0] 
D 65.718104774 _98_ IFQ  --- 8750 message 3356 [0 ffffffff 62 800] ------- [98:255 -1:255 32 0] 
D 65.721476723 _103_ IFQ  --- 8809 message 3380 [0 ffffffff 67 800] ------- [103:255 -1:255 32 0] 
D 65.750749685 _103_ IFQ  --- 8825 message 3380 [0 ffffffff 67 800] ------- [103:255 -1:255 32 0] 
D 65.752041649 _98_ IFQ  --- 8763 message 3356 [0 ffffffff 62 800] ------- [98:255 -1:255 32 0] 
D 65.752659536 _98_ IFQ  --- 8781 message 3356 [0 ffffffff 62 800] ------- [98:255 -1:255 32 0] 
D 65.754680386 _103_ IFQ  --- 8841 message 3368 [0 ffffffff 67 800] ------- [103:255 -1:255 32 0] 
D 65.754825349 _200_ IFQ  --- 8826 message 3380 [0 ffffffff c8 800] ------- [200:255 -1:255 32 0] 
D 65.755880527 _200_ IFQ  --- 8843 message 3368 [0 ffffffff c8 800] ------- [200:255 -1:255 32 0] 
D 65.758294094 _185_ IFQ  --- 8788 message 3404 [0 ffffffff b9 800] ------- [185:255 -1:255 32 0] 
D 65.758329025 _152_ IFQ  --- 8778 message 3356 [0 ffffffff 98 800] ------- [152:255 -1:255 32 0] 
D 65.786774239 _185_ IFQ  --- 8827 message 3404 [0 ffffffff b9 800] ------- [185:255 -1:255 32 0] 
D 65.789963279 _98_ IFQ  --- 8819 message 3368 [0 ffffffff 62 800] ------- [98:255 -1:255 32 0] 
D 65.790208717 _200_ IFQ  --- 8872 message 3368 [0 ffffffff c8 800] ------- [200:255 -1:255 32 0] 
D 65.790710559 _152_ IFQ  --- 8822 message 3368 [0 ffffffff 98 800] ------- [152:255 -1:255 32 0] 
D 65.794149582 _103_ IFQ  --- 8870 message 3368 [0 ffffffff 67 800] ------- [103:255 -1:255 32 0] 
D 65.847118307 _200_ IFQ  --- 8924 message 3368 [0 ffffffff c8 800] ------- [200:255 -1:255 32 0] 
D 65.851066529 _103_ IFQ  --- 8920 message 3380 [0 ffffffff 67 800] ------- [103:255 -1:255 32 0] 
D 65.853755915 _152_ IFQ  --- 8844 message 3356 [0 ffffffff 98 800] ------- [152:255 -1:255 32 0] 
D 65.854411906 _245_ IFQ  --- 8928 message 3404 [0 ffffffff f5 800] ------- [245:255 -1:255 32 0] 
D 65.937524158 _175_ IFQ  --- 8308 message 3392 [0 ffffffff af 800] ------- [175:255 -1:255 32 0] 
D 66.000059669 _200_ IFQ  --- 8931 message 3368 [0 ffffffff c8 800] ------- [200:255 -1:255 32 0] 
D 66.000661186 _175_ IFQ  --- 8318 message 3392 [0 ffffffff af 800] ------- [175:255 -1:255 32 0] 
D 66.001780465 _245_ IFQ  --- 8968 message 3416 [0 ffffffff f5 800] ------- [245:255 -1:255 32 0] 
D 66.002554246 _245_ IFQ  --- 8986 message 3416 [0 ffffffff f5 800] ------- [245:255 -1:255 32 0] 
D 66.005857423 _103_ IFQ  --- 8930 message 3380 [0 ffffffff 67 800] ------- [103:255 -1:255 32 0] 
D 66.008334666 _152_ IFQ  --- 8869 message 3356 [0 ffffffff 98 800] ------- [152:255 -1:255 32 0] 