M 0.00000 300 (61.15, 76.01, 0.00), (87.98, 37.93), 2.78
M 22.00000 300 (87.98, 37.93, 0.00), (72.27, 20.34), 2.99
M 32.00000 300 (72.27, 20.34, 0.00), (69.78, 25.30), 2.83
M 35.00000 300 (69.78, 25.30, 0.00), (11.26, 21.31), 1.97
D 60.620842830 _156_ IFQ  --- 7164 message 3320 [0 ffffffff 9c 800] ------- [156:255 -1:255 32 0] 
D 60.621136306 _156_ IFQ  --- 7174 message 3320 [0 ffffffff 9c 800] ------- [156:255 -1:255 32 0] 
D 60.692097897 _156_ IFQ  --- 7214 message 3320 [0 ffffffff 9c 800] ------- [156:255 -1:255 32 0] 
D 60.785216697 _156_ IFQ  --- 7220 message 3320 [0 ffffffff 9c 800] ------- [156:255 -1:255 32 0] 
D 60.962344265 _156_ IFQ  --- 7247 message 3332 [0 ffffffff 9c 800] ------- [156:255 -1:255 32 0] 
D 60.997422580 _156_ IFQ  --- 7307 message 3332 [0 ffffffff 9c 800] ------- [156:255 -1:255 32 0] 
D 61.024211805 _156_ IFQ  --- 7353 message 3332 [0 ffffffff 9c 800] ------- [156:255 -1:255 32 0] 
D 61.188170487 _156_ IFQ  --- 7381 message 3332 [0 ffffffff 9c 800] ------- [156:255 -1:255 32 0] 
D 61.218816344 _113_ IFQ  --- 7383 message 3320 [0 ffffffff 71 800] ------- [113:255 -1:255 32 0] 
D 61.219235860 _156_ IFQ  --- 7398 message 3332 [0 ffffffff 9c 800] ------- [156:255 -1:255 32 0] 
D 61.311032407 _291_ IFQ  --- 7399 message 3332 [0 ffffffff 123 800] ------- [291:255 -1:255 32 0] 
D 61.314146980 _291_ IFQ  --- 7418 message 3332 [0 ffffffff 123 800] ------- [291:255 -1:255 32 0] 
D 61.334250389 _113_ IFQ  --- 7400 message 3320 [0 ffffffff 71 800] ------- [113:255 -1:255 32 0] 
D 61.336841579 _156_ IFQ  --- 7417 message 3332 [0 ffffffff 9c 800] ------- [156:255 -1:255 32 0] 
D 61.338222607 _104_ IFQ  --- 7175 message 3320 [0 ffffffff 68 800] ------- [104:255 -1:255 32 0] 
D 61.339851452 _291_ IFQ  --- 7488 message 3332 [0 ffffffff 123 800] ------- [291:255 -1:255 32 0] 
D 61.365953526 _113_ IFQ  --- 7413 message 3320 [0 ffffffff 71 800] ------- [113:255 -1:255 32 0] 
D 61.370073496 _104_ IFQ  --- 7305 message 3332 [0 ffffffff 68 800] ------- [104:255 -1:255 32 0] 
D 61.373367828 _291_ IFQ  --- 7507 message 3332 [0 ffffffff 123 800] ------- [291:255 -1:255 32 0] 
D 61.373405635 _156_ IFQ  --- 7487 message 3332 [0 ffffffff 9c 800] ------- [156:255 -1:255 32 0] 
D 61.402281692 _291_ IFQ  --- 7492 message 3332 [0 ffffffff 123 800] ------- [291:255 -1:255 32 0] 
D 61.403152520 _113_ IFQ  --- 7483 message 3320 [0 ffffffff 71 800] ------- [113:255 -1:255 32 0] 
D 61.405009023 _156_ IFQ  --- 7491 message 3332 [0 ffffffff 9c 800] ------- [156:255 -1:255 32 0] 
D 61.406686540 _104_ IFQ  --- 7352 message 3332 [0 ffffffff 68 800] ------- [104:255 -1:255 32 0] 
D 61.444933111 _104_ IFQ  --- 7379 message 3332 [0 ffffffff 68 800] ------- [104:255 -1:255 32 0] 
D 61.445927342 _156_ IFQ  --- 7505 message 3332 [0 ffffffff 9c 800] ------- [156:255 -1:255 32 0] 
D 61.446218008 _291_ IFQ  --- 7523 message 3332 [0 ffffffff 123 800] ------- [291:255 -1:255 32 0] 
D 61.528222471 _113_ IFQ  --- 7494 message 3320 [0 ffffffff 71 800] ------- [113:255 -1:255 32 0] 
D 61.528596258 _291_ IFQ  --- 7537 message 3332 [0 ffffffff 123 800] ------- [291:255 -1:255 32 0] 
D 61.535480767 _156_ IFQ  --- 7521 message 3332 [0 ffffffff 9c 800] ------- [156:255 -1:255 32 0] 
D 61.540068155 _104_ IFQ  --- 7396 message 3332 [0 ffffffff 68 800] ------- [104:255 -1:255 32 0] 
D 61.616629553 _291_ IFQ  --- 7554 message 3332 [0 ffffffff 123 800] ------- [291:255 -1:255 32 0] 
D 61.620479318 _255_ IFQ  --- 7495 message 3332 [0 ffffffff ff 800] ------- [255:255 -1:255 32 0] 
D 61.624173255 _156_ IFQ  --- 7536 message 3332 [0 ffffffff 9c 800] ------- [156:255 -1:255 32 0] 
D 61.625118520 _201_ IFQ  --- 7502 message 3320 [0 ffffffff c9 800] ------- [201:255 -1:255 32 0] 
D 61.650612677 _255_ IFQ  --- 7508 message 3332 [0 ffffffff ff 800] ------- [255:255 -1:255 32 0] 
D 61.651694796 _104_ IFQ  --- 7412 message 3332 [0 ffffffff 68 800] ------- [104:255 -1:255 32 0] 
D 61.652233903 _201_ IFQ  --- 7516 message 3320 [0 ffffffff c9 800] ------- [201:255 -1:255 32 0] 
D 61.658574081 _156_ IFQ  --- 7553 message 3332 [0 ffffffff 9c 800] ------- [156:255 -1:255 32 0] 
D 61.682514724 _291_ IFQ  --- 7567 message 3332 [0 ffffffff 123 800] ------- [291:255 -1:255 32 0] 
D 61.684462486 _113_ IFQ  --- 7501 message 3320 [0 ffffffff 71 800] ------- [113:255 -1:255 32 0] 
D 61.685087142 _156_ IFQ  --- 7566 message 3332 [0 ffffffff 9c 800] ------- [156:255 -1:255 32 0] 
D 61.686397292 _255_ IFQ  --- 7600 message 3320 [0 ffffffff ff 800] ------- [255:255 -1:255 32 0] 
D 61.686846175 _201_ IFQ  --- 7641 message 3332 [0 ffffffff c9 800] ------- [201:255 -1:255 32 0] 
D 61.688754182 _104_ IFQ  --- 7484 message 3332 [0 ffffffff 68 800] ------- [104:255 -1:255 32 0] 
D 62.026411803 _201_ IFQ  --- 7658 message 3320 [0 ffffffff c9 800] ------- [201:255 -1:255 32 0] 
D 62.033263458 _104_ IFQ  --- 7498 message 3332 [0 ffffffff 68 800] ------- [104:255 -1:255 32 0] 
D 62.060703078 _255_ IFQ  --- 7640 message 3332 [0 ffffffff ff 800] ------- [255:255 -1:255 32 0] 
D 62.066228054 _201_ IFQ  --- 7705 message 3320 [0 ffffffff c9 800] ------- [201:255 -1:255 32 0] 
D 62.067870711 _156_ IFQ  --- 7581 message 3332 [0 ffffffff 9c 800] ------- [156:255 -1:255 32 0] 
D 62.095468195 _291_ IFQ  --- 7582 message 3332 [0 ffffffff 123 800] ------- [291:255 -1:255 32 0] 
D 62.100291593 _201_ IFQ  --- 7696 message 3320 [0 ffffffff c9 800] ------- [201:255 -1:255 32 0] 
D 62.100903494 _255_ IFQ  --- 7657 message 3320 [0 ffffffff ff 800] ------- [255:255 -1:255 32 0] 
D 62.123888069 _291_ IFQ  --- 7622 message 3332 [0 ffffffff 123 800] ------- [291:255 -1:255 32 0] 
D 62.128540929 _201_ IFQ  --- 7717 message 3320 [0 ffffffff c9 800] ------- [201:255 -1:255 32 0] 
D 62.133017649 _255_ IFQ  --- 7702 message 3320 [0 ffffffff ff 800] ------- [255:255 -1:255 32 0] 
D 62.191681466 _255_ IFQ  --- 7716 message 3320 [0 ffffffff ff 800] ------- [255:255 -1:255 32 0] 
D 62.196086833 _201_ IFQ  --- 7741 message 3320 [0 ffffffff c9 800] ------- [201:255 -1:255 32 0] 
D 62.197844047 _152_ IFQ  --- 7746 message 3332 [0 ffffffff 98 800] ------- [152:255 -1:255 32 0] 
D 62.198434787 _291_ IFQ  --- 7636 message 3332 [0 ffffffff 123 800] ------- [291:255 -1:255 32 0] 
D 62.201971636 _291_ IFQ  --- 7663 message 3320 [0 ffffffff 123 800] ------- [291:255 -1:255 32 0] 
D 62.256966843 _291_ IFQ  --- 7704 message 3320 [0 ffffffff 123 800] ------- [291:255 -1:255 32 0] 
D 62.257299780 _201_ IFQ  --- 7751 message 3320 [0 ffffffff c9 800] ------- [201:255 -1:255 32 0] 
D 62.259385988 _156_ IFQ  --- 7604 message 3320 [0 ffffffff 9c 800] ------- [156:255 -1:255 32 0] 
D 62.260513183 _255_ IFQ  --- 7740 message 3320 [0 ffffffff ff 800] ------- [255:255 -1:255 32 0] 
D 62.262659526 _156_ IFQ  --- 7621 message 3332 [0 ffffffff 9c 800] ------- [156:255 -1:255 32 0] 
D 62.266572299 _152_ IFQ  --- 7757 message 3332 [0 ffffffff 98 800] ------- [152:255 -1:255 32 0] 
D 62.267091491 _201_ IFQ  --- 7826 message 3332 [0 ffffffff c9 800] ------- [201:255 -1:255 32 0] 
D 62.271564052 _291_ IFQ  --- 7715 message 3320 [0 ffffffff 123 800] ------- [291:255 -1:255 32 0] 
D 62.271720179 _255_ IFQ  --- 7830 message 3332 [0 ffffffff ff 800] ------- [255:255 -1:255 32 0] 
D 62.295863527 _255_ IFQ  --- 7853 message 3332 [0 ffffffff ff 800] ------- [255:255 -1:255 32 0] 
D 62.297645360 _156_ IFQ  --- 7637 message 3332 [0 ffffffff 9c 800] ------- [156:255 -1:255 32 0] 
D 62.298957480 _152_ IFQ  --- 7824 message 3344 [0 ffffffff 98 800] ------- [152:255 -1:255 32 0] 
D 62.300602856 _291_ IFQ  --- 7745 message 3320 [0 ffffffff 123 800] ------- [291:255 -1:255 32 0] 
D 62.305287237 _201_ IFQ  --- 7847 message 3332 [0 ffffffff c9 800] ------- [201:255 -1:255 32 0] 
D 62.329247614 _152_ IFQ  --- 7844 message 3344 [0 ffffffff 98 800] ------- [152:255 -1:255 32 0] 
D 62.332159103 _201_ IFQ  --- 7863 message 3332 [0 ffffffff c9 800] ------- [201:255 -1:255 32 0] 
D 62.332203064 _53_ IFQ  --- 7922 message 3332 [0 ffffffff 35 800] ------- [53:255 -1:255 32 0] 
D 62.336121470 _255_ IFQ  --- 7866 message 3332 [0 ffffffff ff 800] ------- [255:255 -1:255 32 0] 
D 62.337254586 _291_ IFQ  --- 7756 message 3320 [0 ffffffff 123 800] ------- [291:255 -1:255 32 0] 
D 62.364320762 _291_ IFQ  --- 7796 message 3332 [0 ffffffff 123 800] ------- [291:255 -1:255 32 0] 
D 62.364998998 _255_ IFQ  --- 7925 message 3332 [0 ffffffff ff 800] ------- [255:255 -1:255 32 0] 
D 62.367036169 _53_ IFQ  --- 8020 message 3320 [0 ffffffff 35 800] ------- [53:255 -1:255 32 0] 
D 62.367123360 _201_ IFQ  --- 7921 message 3332 [0 ffffffff c9 800] ------- [201:255 -1:255 32 0] 
D 62.367720735 _152_ IFQ  --- 7919 message 3344 [0 ffffffff 98 800] ------- [152:255 -1:255 32 0] 
D 62.370615445 _223_ IFQ  --- 7848 message 3332 [0 ffffffff df 800] ------- [223:255 -1:255 32 0] 
D 62.397166820 _255_ IFQ  --- 7979 message 3344 [0 ffffffff ff 800] ------- [255:255 -1:255 32 0] 
D 62.397653138 _201_ IFQ  --- 7971 message 3344 [0 ffffffff c9 800] ------- [201:255 -1:255 32 0] 
D 62.399275623 _53_ IFQ  --- 8050 message 3320 [0 ffffffff 35 800] ------- [53:255 -1:255 32 0] 
D 62.399333891 _223_ IFQ  --- 7882 message 3332 [0 ffffffff df 800] ------- [223:255 -1:255 32 0] 
D 62.405946399 _152_ IFQ  --- 7995 message 3356 [0 ffffffff 98 800] ------- [152:255 -1:255 32 0] 
D 62.406252509 _291_ IFQ  --- 7832 message 3332 [0 ffffffff 123 800] ------- [291:255 -1:255 32 0] 
D 62.459868821 _152_ IFQ  --- 8013 message 3344 [0 ffffffff 98 800] ------- [152:255 -1:255 32 0] 
D 62.460051241 _291_ IFQ  --- 7833 message 3332 [0 ffffffff 123 800] ------- [291:255 -1:255 32 0] 
D 62.463085694 _53_ IFQ  --- 8089 message 3320 [0 ffffffff 35 800] ------- [53:255 -1:255 32 0] 
D 62.465281868 _223_ IFQ  --- 7928 message 3332 [0 ffffffff df 800] ------- [223:255 -1:255 32 0] 
D 62.465415589 _255_ IFQ  --- 7975 message 3344 [0 ffffffff ff 800] ------- [255:255 -1:255 32 0] 
D 62.466686579 _201_ IFQ  --- 8048 message 3332 [0 ffffffff c9 800] ------- [201:255 -1:255 32 0] 
D 62.490070227 _152_ IFQ  --- 8087 message 3344 [0 ffffffff 98 800] ------- [152:255 -1:255 32 0] 
D 62.491178661 _201_ IFQ  --- 8082 message 3332 [0 ffffffff c9 800] ------- [201:255 -1:255 32 0] 
D 62.492647411 _291_ IFQ  --- 7850 message 3332 [0 ffffffff 123 800] ------- [291:255 -1:255 32 0] 
D 62.495004839 _156_ IFQ  --- 7703 message 3320 [0 ffffffff 9c 800] ------- [156:255 -1:255 32 0] 
D 62.496909454 _53_ IFQ  --- 8093 message 3320 [0 ffffffff 35 800] ------- [53:255 -1:255 32 0] 
D 62.498265297 _88_ IFQ  --- 7924 message 3320 [0 ffffffff 58 800] ------- [88:255 -1:255 32 0] 
D 62.499121237 _223_ IFQ  --- 8017 message 3320 [0 ffffffff df 800] ------- [223:255 -1:255 32 0] 
D 62.523387131 _201_ IFQ  --- 8096 message 3332 [0 ffffffff c9 800] ------- [201:255 -1:255 32 0] 
D 62.523783159 _291_ IFQ  --- 7868 message 3332 [0 ffffffff 123 800] ------- [291:255 -1:255 32 0] 
D 62.527216457 _156_ IFQ  --- 7714 message 3320 [0 ffffffff 9c 800] ------- [156:255 -1:255 32 0] 
D 62.527790150 _88_ IFQ  --- 8014 message 3320 [0 ffffffff 58 800] ------- [88:255 -1:255 32 0] 
D 62.527998943 _152_ IFQ  --- 8095 message 3344 [0 ffffffff 98 800] ------- [152:255 -1:255 32 0] 
D 62.529298942 _255_ IFQ  --- 7991 message 3344 [0 ffffffff ff 800] ------- [255:255 -1:255 32 0] 
D 62.530808888 _152_ IFQ  --- 8111 message 3344 [0 ffffffff 98 800] ------- [152:255 -1:255 32 0] 
D 62.530827706 _223_ IFQ  --- 8099 message 3320 [0 ffffffff df 800] ------- [223:255 -1:255 32 0] 
D 62.531121196 _53_ IFQ  --- 8113 message 3320 [0 ffffffff 35 800] ------- [53:255 -1:255 32 0] 
D 62.534714890 _53_ IFQ  --- 8142 message 3296 [0 ffffffff 35 800] ------- [53:255 -1:255 32 0] 
D 62.550031673 _291_ IFQ  --- 7977 message 3332 [0 ffffffff 123 800] ------- [291:255 -1:255 32 0] 
D 62.552739073 _53_ IFQ  --- 8182 message 3296 [0 ffffffff 35 800] ------- [53:255 -1:255 32 0] 
D 62.575460185 _152_ IFQ  --- 8140 message 3344 [0 ffffffff 98 800] ------- [152:255 -1:255 32 0] 
D 62.576217395 _88_ IFQ  --- 8081 message 3320 [0 ffffffff 58 800] ------- [88:255 -1:255 32 0] 
D 62.577289165 _53_ IFQ  --- 8224 message 3284 [0 ffffffff 35 800] ------- [53:255 -1:255 32 0] 
D 62.578204857 _223_ IFQ  --- 8119 message 3320 [0 ffffffff df 800] ------- [223:255 -1:255 32 0] 
D 62.578411888 _156_ IFQ  --- 7743 message 3320 [0 ffffffff 9c 800] ------- [156:255 -1:255 32 0] 
D 62.578801616 _255_ IFQ  --- 8016 message 3332 [0 ffffffff ff 800] ------- [255:255 -1:255 32 0] 
D 62.579033613 _104_ IFQ  --- 7504 message 3332 [0 ffffffff 68 800] ------- [104:255 -1:255 32 0] 
D 62.579493731 _223_ IFQ  --- 8148 message 3296 [0 ffffffff df 800] ------- [223:255 -1:255 32 0] 
D 62.579741193 _201_ IFQ  --- 8114 message 3332 [0 ffffffff c9 800] ------- [201:255 -1:255 32 0] 
D 62.580476932 _291_ IFQ  --- 7989 message 3332 [0 ffffffff 123 800] ------- [291:255 -1:255 32 0] 
D 62.580896600 _88_ IFQ  --- 8097 message 3320 [0 ffffffff 58 800] ------- [88:255 -1:255 32 0] 
D 62.584908265 _152_ IFQ  --- 8175 message 3344 [0 ffffffff 98 800] ------- [152:255 -1:255 32 0] 
D 62.585223676 _53_ IFQ  --- 8285 message 3284 [0 ffffffff 35 800] ------- [53:255 -1:255 32 0] 
D 62.586127693 _255_ IFQ  --- 8049 message 3332 [0 ffffffff ff 800] ------- [255:255 -1:255 32 0] 
D 62.586219308 _201_ IFQ  --- 8124 message 3332 [0 ffffffff c9 800] ------- [201:255 -1:255 32 0] 
D 62.586798947 _291_ IFQ  --- 8021 message 3320 [0 ffffffff 123 800] ------- [291:255 -1:255 32 0] 
D 62.613935515 _88_ IFQ  --- 8116 message 3320 [0 ffffffff 58 800] ------- [88:255 -1:255 32 0] 
D 62.614563369 _255_ IFQ  --- 8079 message 3332 [0 ffffffff ff 800] ------- [255:255 -1:255 32 0] 
D 62.616819021 _53_ IFQ  --- 8375 message 3296 [0 ffffffff 35 800] ------- [53:255 -1:255 32 0] 
D 62.618069979 _152_ IFQ  --- 8223 message 3332 [0 ffffffff 98 800] ------- [152:255 -1:255 32 0] 
D 62.619558064 _223_ IFQ  --- 8180 message 3296 [0 ffffffff df 800] ------- [223:255 -1:255 32 0] 
D 62.620744244 _291_ IFQ  --- 8086 message 3320 [0 ffffffff 123 800] ------- [291:255 -1:255 32 0] 
D 62.621749353 _201_ IFQ  --- 8143 message 3308 [0 ffffffff c9 800] ------- [201:255 -1:255 32 0] 
D 62.675092727 _201_ IFQ  --- 8174 message 3308 [0 ffffffff c9 800] ------- [201:255 -1:255 32 0] 
D 62.675853870 _156_ IFQ  --- 7755 message 3320 [0 ffffffff 9c 800] ------- [156:255 -1:255 32 0] 
D 62.677690436 _88_ IFQ  --- 8145 message 3296 [0 ffffffff 58 800] ------- [88:255 -1:255 32 0] 
D 62.677799613 _291_ IFQ  --- 8102 message 3320 [0 ffffffff 123 800] ------- [291:255 -1:255 32 0] 
D 62.677832926 _255_ IFQ  --- 8103 message 3332 [0 ffffffff ff 800] ------- [255:255 -1:255 32 0] 
D 62.678931293 _152_ IFQ  --- 8280 message 3332 [0 ffffffff 98 800] ------- [152:255 -1:255 32 0] 
D 62.680207466 _53_ IFQ  --- 8399 message 3308 [0 ffffffff 35 800] ------- [53:255 -1:255 32 0] 
D 62.682006511 _223_ IFQ  --- 8217 message 3284 [0 ffffffff df 800] ------- [223:255 -1:255 32 0] 
D 62.706812631 _88_ IFQ  --- 8176 message 3296 [0 ffffffff 58 800] ------- [88:255 -1:255 32 0] 
D 62.706847076 _201_ IFQ  --- 8220 message 3296 [0 ffffffff c9 800] ------- [201:255 -1:255 32 0] 
D 62.708125099 _152_ IFQ  --- 8292 message 3332 [0 ffffffff 98 800] ------- [152:255 -1:255 32 0] 
D 62.708696078 _255_ IFQ  --- 8121 message 3332 [0 ffffffff ff 800] ------- [255:255 -1:255 32 0] 
D 62.708873534 _53_ IFQ  --- 8415 message 3308 [0 ffffffff 35 800] ------- [53:255 -1:255 32 0] 
D 62.827295981 _291_ IFQ  --- 8122 message 3320 [0 ffffffff 123 800] ------- [291:255 -1:255 32 0] 
D 62.886417260 _291_ IFQ  --- 8150 message 3296 [0 ffffffff 123 800] ------- [291:255 -1:255 32 0] 
D 62.886437862 _88_ IFQ  --- 8215 message 3284 [0 ffffffff 58 800] ------- [88:255 -1:255 32 0] 
D 62.886557787 _152_ IFQ  --- 8357 message 3344 [0 ffffffff 98 800] ------- [152:255 -1:255 32 0] 
D 62.890067391 _223_ IFQ  --- 8288 message 3284 [0 ffffffff df 800] ------- [223:255 -1:255 32 0] 
D 62.913807826 _223_ IFQ  --- 8352 message 3296 [0 ffffffff df 800] ------- [223:255 -1:255 32 0] 
D 62.916500112 _291_ IFQ  --- 8184 message 3296 [0 ffffffff 123 800] ------- [291:255 -1:255 32 0] 
D 62.917117591 _201_ IFQ  --- 8281 message 3296 [0 ffffffff c9 800] ------- [201:255 -1:255 32 0] 
D 62.917624010 _88_ IFQ  --- 8283 message 3284 [0 ffffffff 58 800] ------- [88:255 -1:255 32 0] 
D 62.920798858 _53_ IFQ  --- 8443 message 3320 [0 ffffffff 35 800] ------- [53:255 -1:255 32 0] 
D 63.058718437 _291_ IFQ  --- 8351 message 3296 [0 ffffffff 123 800] ------- [291:255 -1:255 32 0] 
D 63.061329723 _201_ IFQ  --- 8356 message 3308 [0 ffffffff c9 800] ------- [201:255 -1:255 32 0] 
D 63.061537188 _223_ IFQ  --- 8383 message 3296 [0 ffffffff df 800] ------- [223:255 -1:255 32 0] 
D 63.062060721 _152_ IFQ  --- 8370 message 3344 [0 ffffffff 98 800] ------- [152:255 -1:255 32 0] 
D 63.063804865 _53_ IFQ  --- 8496 message 3320 [0 ffffffff 35 800] ------- [53:255 -1:255 32 0] 
D 63.091153482 _201_ IFQ  --- 8374 message 3308 [0 ffffffff c9 800] ------- [201:255 -1:255 32 0] 
D 63.094262710 _152_ IFQ  --- 8403 message 3344 [0 ffffffff 98 800] ------- [152:255 -1:255 32 0] 
D 63.097260981 _53_ IFQ  --- 8506 message 3320 [0 ffffffff 35 800] ------- [53:255 -1:255 32 0] 
D 63.097332984 _88_ IFQ  --- 8353 message 3296 [0 ffffffff 58 800] ------- [88:255 -1:255 32 0] 
D 63.098126426 _223_ IFQ  --- 8395 message 3308 [0 ffffffff df 800] ------- [223:255 -1:255 32 0] 
D 63.237038949 _291_ IFQ  --- 8385 message 3296 [0 ffffffff 123 800] ------- [291:255 -1:255 32 0] 
D 63.237367611 _88_ IFQ  --- 8381 message 3296 [0 ffffffff 58 800] ------- [88:255 -1:255 32 0] 
D 63.239255322 _201_ IFQ  --- 8401 message 3320 [0 ffffffff c9 800] ------- [201:255 -1:255 32 0] 
D 63.241062077 _53_ IFQ  --- 8540 message 3320 [0 ffffffff 35 800] ------- [53:255 -1:255 32 0] 
D 63.241952586 _223_ IFQ  --- 8422 message 3308 [0 ffffffff df 800] ------- [223:255 -1:255 32 0] 
D 63.243797601 _89_ IFQ  --- 8391 message 3308 [0 ffffffff 59 800] ------- [89:255 -1:255 32 0] 
D 63.269299015 _53_ IFQ  --- 8557 message 3308 [0 ffffffff 35 800] ------- [53:255 -1:255 32 0] 
D 63.270957950 _152_ IFQ  --- 8414 message 3344 [0 ffffffff 98 800] ------- [152:255 -1:255 32 0] 
D 63.270995127 _223_ IFQ  --- 8497 message 3320 [0 ffffffff df 800] ------- [223:255 -1:255 32 0] 
D 63.272497030 _255_ IFQ  --- 8147 message 3308 [0 ffffffff ff 800] ------- [255:255 -1:255 32 0] 
D 63.272994155 _156_ IFQ  --- 7831 message 3332 [0 ffffffff 9c 800] ------- [156:255 -1:255 32 0] 
D 63.273553309 _291_ IFQ  --- 8393 message 3308 [0 ffffffff 123 800] ------- [291:255 -1:255 32 0] 
D 63.273722280 _201_ IFQ  --- 8418 message 3320 [0 ffffffff c9 800] ------- [201:255 -1:255 32 0] 
D 63.274298957 _89_ IFQ  --- 8508 message 3320 [0 ffffffff 59 800] ------- [89:255 -1:255 32 0] 
D 63.276622775 _88_ IFQ  --- 8397 message 3308 [0 ffffffff 58 800] ------- [88:255 -1:255 32 0] 
D 63.364640277 _291_ IFQ  --- 8425 message 3308 [0 ffffffff 123 800] ------- [291:255 -1:255 32 0] 
D 63.394450695 _152_ IFQ  --- 8439 message 3356 [0 ffffffff 98 800] ------- [152:255 -1:255 32 0] 
D 63.394568127 _291_ IFQ  --- 8516 message 3320 [0 ffffffff 123 800] ------- [291:255 -1:255 32 0] 
D 63.396570627 _88_ IFQ  --- 8446 message 3320 [0 ffffffff 58 800] ------- [88:255 -1:255 32 0] 
D 63.397958746 _53_ IFQ  --- 8581 message 3296 [0 ffffffff 35 800] ------- [53:255 -1:255 32 0] 
D 63.398035860 _152_ IFQ  --- 8500 message 3356 [0 ffffffff 98 800] ------- [152:255 -1:255 32 0] 
D 63.399865176 _53_ IFQ  --- 8599 message 3296 [0 ffffffff 35 800] ------- [53:255 -1:255 32 0] 
D 63.400996700 _223_ IFQ  --- 8514 message 3320 [0 ffffffff df 800] ------- [223:255 -1:255 32 0] 
D 63.404062046 _291_ IFQ  --- 8499 message 3320 [0 ffffffff 123 800] ------- [291:255 -1:255 32 0] 
D 63.404306534 _53_ IFQ  --- 8640 message 3296 [0 ffffffff 35 800] ------- [53:255 -1:255 32 0] 
D 63.404945981 _88_ IFQ  --- 8512 message 3320 [0 ffffffff 58 800] ------- [88:255 -1:255 32 0] 
D 63.406046058 _201_ IFQ  --- 8442 message 3332 [0 ffffffff c9 800] ------- [201:255 -1:255 32 0] 
D 63.406209028 _152_ IFQ  --- 8489 message 3356 [0 ffffffff 98 800] ------- [152:255 -1:255 32 0] 
D 63.406586909 _89_ IFQ  --- 8538 message 3320 [0 ffffffff 59 800] ------- [89:255 -1:255 32 0] 
D 63.410190548 _148_ IFQ  --- 8371 message 3308 [0 ffffffff 94 800] ------- [148:255 -1:255 32 0] 
D 63.438667600 _291_ IFQ  --- 8537 message 3320 [0 ffffffff 123 800] ------- [291:255 -1:255 32 0] 
D 63.439211563 _223_ IFQ  --- 8534 message 3320 [0 ffffffff df 800] ------- [223:255 -1:255 32 0] 
D 63.440424116 _201_ IFQ  --- 8490 message 3332 [0 ffffffff c9 800] ------- [201:255 -1:255 32 0] 
D 63.441451275 _148_ IFQ  --- 8504 message 3332 [0 ffffffff 94 800] ------- [148:255 -1:255 32 0] 
D 63.442034867 _245_ IFQ  --- 8380 message 3284 [0 ffffffff f5 800] ------- [245:255 -1:255 32 0] 
D 63.444769214 _152_ IFQ  --- 8533 message 3356 [0 ffffffff 98 800] ------- [152:255 -1:255 32 0] 
D 63.445434046 _142_ IFQ  --- 8407 message 3320 [0 ffffffff 8e 800] ------- [142:255 -1:255 32 0] 
D 63.446707408 _279_ IFQ  --- 8359 message 3332 [0 ffffffff 117 800] ------- [279:255 -1:255 32 0] 
D 63.447442160 _89_ IFQ  --- 8553 message 3308 [0 ffffffff 59 800] ------- [89:255 -1:255 32 0] 
D 63.447474666 _88_ IFQ  --- 8531 message 3320 [0 ffffffff 58 800] ------- [88:255 -1:255 32 0] 
D 63.499924166 _245_ IFQ  --- 8398 message 3296 [0 ffffffff f5 800] ------- [245:255 -1:255 32 0] 
D 63.641960700 _201_ IFQ  --- 8505 message 3332 [0 ffffffff c9 800] ------- [201:255 -1:255 32 0] 
D 63.642095000 _89_ IFQ  --- 8596 message 3296 [0 ffffffff 59 800] ------- [89:255 -1:255 32 0] 
D 63.644432702 _291_ IFQ  --- 8558 message 3308 [0 ffffffff 123 800] ------- [291:255 -1:255 32 0] 
D 63.646003524 _223_ IFQ  --- 8554 message 3308 [0 ffffffff df 800] ------- [223:255 -1:255 32 0] 
D 63.646093557 _88_ IFQ  --- 8550 message 3308 [0 ffffffff 58 800] ------- [88:255 -1:255 32 0] 
D 63.646274126 _245_ IFQ  --- 8510 message 3308 [0 ffffffff f5 800] ------- [245:255 -1:255 32 0] 
D 63.647800961 _53_ IFQ  --- 8656 message 3296 [0 ffffffff 35 800] ------- [53:255 -1:255 32 0] 
D 63.648933653 _245_ IFQ  --- 8541 message 3308 [0 ffffffff f5 800] ------- [245:255 -1:255 32 0] 
D 63.650700611 _279_ IFQ  --- 8377 message 3332 [0 ffffffff 117 800] ------- [279:255 -1:255 32 0] 
D 63.650994228 _152_ IFQ  --- 8549 message 3344 [0 ffffffff 98 800] ------- [152:255 -1:255 32 0] 
D 63.676854634 _291_ IFQ  --- 8584 message 3296 [0 ffffffff 123 800] ------- [291:255 -1:255 32 0] 
D 63.735757801 _223_ IFQ  --- 8582 message 3296 [0 ffffffff df 800] ------- [223:255 -1:255 32 0] 
D 63.736438057 _142_ IFQ  --- 8417 message 3320 [0 ffffffff 8e 800] ------- [142:255 -1:255 32 0] 
D 63.736830786 _245_ IFQ  --- 8559 message 3296 [0 ffffffff f5 800] ------- [245:255 -1:255 32 0] 
D 63.738754028 _291_ IFQ  --- 8605 message 3296 [0 ffffffff 123 800] ------- [291:255 -1:255 32 0] 
D 63.739319836 _148_ IFQ  --- 8529 message 3332 [0 ffffffff 94 800] ------- [148:255 -1:255 32 0] 
D 63.740433477 _279_ IFQ  --- 8404 message 3344 [0 ffffffff 117 800] ------- [279:255 -1:255 32 0] 
D 63.740967882 _89_ IFQ  --- 8638 message 3296 [0 ffffffff 59 800] ------- [89:255 -1:255 32 0] 
D 63.741578681 _201_ IFQ  --- 8527 message 3332 [0 ffffffff c9 800] ------- [201:255 -1:255 32 0] 
D 63.742505996 _53_ IFQ  --- 8734 message 3296 [0 ffffffff 35 800] ------- [53:255 -1:255 32 0] 
D 63.861486065 _89_ IFQ  --- 8648 message 3296 [0 ffffffff 59 800] ------- [89:255 -1:255 32 0] 
D 63.950298486 _152_ IFQ  --- 8574 message 3332 [0 ffffffff 98 800] ------- [152:255 -1:255 32 0] 
D 63.950422969 _88_ IFQ  --- 8600 message 3296 [0 ffffffff 58 800] ------- [88:255 -1:255 32 0] 
D 63.951238600 _201_ IFQ  --- 8544 message 3320 [0 ffffffff c9 800] ------- [201:255 -1:255 32 0] 
D 63.954522334 _53_ IFQ  --- 8779 message 3296 [0 ffffffff 35 800] ------- [53:255 -1:255 32 0] 
D 63.955431574 _53_ IFQ  --- 8823 message 3260 [0 ffffffff 35 800] ------- [53:255 -1:255 32 0] 
D 63.956212950 _279_ IFQ  --- 8445 message 3344 [0 ffffffff 117 800] ------- [279:255 -1:255 32 0] 
D 63.957545458 _89_ IFQ  --- 8726 message 3296 [0 ffffffff 59 800] ------- [89:255 -1:255 32 0] 
D 64.038043514 _245_ IFQ  --- 8601 message 3284 [0 ffffffff f5 800] ------- [245:255 -1:255 32 0] 
D 64.038625124 _89_ IFQ  --- 8777 message 3296 [0 ffffffff 59 800] ------- [89:255 -1:255 32 0] 
D 64.038818047 _223_ IFQ  --- 8603 message 3296 [0 ffffffff df 800] ------- [223:255 -1:255 32 0] 
D 64.040856373 _142_ IFQ  --- 8501 message 3332 [0 ffffffff 8e 800] ------- [142:255 -1:255 32 0] 
D 64.041482679 _88_ IFQ  --- 8577 message 3296 [0 ffffffff 58 800] ------- [88:255 -1:255 32 0] 
D 64.041641383 _291_ IFQ  --- 8637 message 3296 [0 ffffffff 123 800] ------- [291:255 -1:255 32 0] 
D 64.045538177 _53_ IFQ  --- 8842 message 3260 [0 ffffffff 35 800] ------- [53:255 -1:255 32 0] 
D 64.046046849 _152_ IFQ  --- 8589 message 3332 [0 ffffffff 98 800] ------- [152:255 -1:255 32 0] 
D 64.046313939 _279_ IFQ  --- 8511 message 3344 [0 ffffffff 117 800] ------- [279:255 -1:255 32 0] 
D 64.046459432 _148_ IFQ  --- 8545 message 3320 [0 ffffffff 94 800] ------- [148:255 -1:255 32 0] 
D 64.070774101 _201_ IFQ  --- 8576 message 3308 [0 ffffffff c9 800] ------- [201:255 -1:255 32 0] 
D 64.071213566 _53_ IFQ  --- 8857 message 3260 [0 ffffffff 35 800] ------- [53:255 -1:255 32 0] 
D 64.072051563 _89_ IFQ  --- 8827 message 3284 [0 ffffffff 59 800] ------- [89:255 -1:255 32 0] 
D 64.076065623 _223_ IFQ  --- 8634 message 3296 [0 ffffffff df 800] ------- [223:255 -1:255 32 0] 
D 64.076271699 _245_ IFQ  --- 8653 message 3284 [0 ffffffff f5 800] ------- [245:255 -1:255 32 0] 
D 64.077994767 _148_ IFQ  --- 8594 message 3308 [0 ffffffff 94 800] ------- [148:255 -1:255 32 0] 
D 64.079214231 _152_ IFQ  --- 8633 message 3332 [0 ffffffff 98 800] ------- [152:255 -1:255 32 0] 
D 64.079361949 _291_ IFQ  --- 8644 message 3296 [0 ffffffff 123 800] ------- [291:255 -1:255 32 0] 
D 64.079559377 _88_ IFQ  --- 8607 message 3296 [0 ffffffff 58 800] ------- [88:255 -1:255 32 0] 
D 64.079718813 _279_ IFQ  --- 8547 message 3332 [0 ffffffff 117 800] ------- [279:255 -1:255 32 0] 
D 64.132670367 _279_ IFQ  --- 8598 message 3320 [0 ffffffff 117 800] ------- [279:255 -1:255 32 0] 
D 64.134663907 _201_ IFQ  --- 8630 message 3308 [0 ffffffff c9 800] ------- [201:255 -1:255 32 0] 
D 64.135538197 _245_ IFQ  --- 8690 message 3284 [0 ffffffff f5 800] ------- [245:255 -1:255 32 0] 
D 64.136556820 _152_ IFQ  --- 8657 message 3332 [0 ffffffff 98 800] ------- [152:255 -1:255 32 0] 
D 64.137474944 _291_ IFQ  --- 8694 message 3296 [0 ffffffff 123 800] ------- [291:255 -1:255 32 0] 
D 64.138016854 _89_ IFQ  --- 8853 message 3284 [0 ffffffff 59 800] ------- [89:255 -1:255 32 0] 
D 64.139260310 _148_ IFQ  --- 8659 message 3308 [0 ffffffff 94 800] ------- [148:255 -1:255 32 0] 
D 64.139522662 _223_ IFQ  --- 8646 message 3296 [0 ffffffff df 800] ------- [223:255 -1:255 32 0] 
D 64.141009686 _88_ IFQ  --- 8632 message 3296 [0 ffffffff 58 800] ------- [88:255 -1:255 32 0] 
D 64.304729024 _88_ IFQ  --- 8647 message 3296 [0 ffffffff 58 800] ------- [88:255 -1:255 32 0] 
D 64.306733653 _201_ IFQ  --- 8654 message 3308 [0 ffffffff c9 800] ------- [201:255 -1:255 32 0] 
D 64.306924621 _152_ IFQ  --- 8678 message 3332 [0 ffffffff 98 800] ------- [152:255 -1:255 32 0] 
D 64.307878306 _148_ IFQ  --- 8669 message 3308 [0 ffffffff 94 800] ------- [148:255 -1:255 32 0] 
D 64.309962905 _245_ IFQ  --- 8781 message 3284 [0 ffffffff f5 800] ------- [245:255 -1:255 32 0] 
D 64.310845540 _223_ IFQ  --- 8692 message 3296 [0 ffffffff df 800] ------- [223:255 -1:255 32 0] 
D 64.338371212 _89_ IFQ  --- 8925 message 3284 [0 ffffffff 59 800] ------- [89:255 -1:255 32 0] 
D 64.339022044 _223_ IFQ  --- 8719 message 3296 [0 ffffffff df 800] ------- [223:255 -1:255 32 0] 
D 64.339755803 _201_ IFQ  --- 8681 message 3308 [0 ffffffff c9 800] ------- [201:255 -1:255 32 0] 
D 64.340085792 _152_ IFQ  --- 8732 message 3332 [0 ffffffff 98 800] ------- [152:255 -1:255 32 0] 
D 64.340832913 _245_ IFQ  --- 8824 message 3272 [0 ffffffff f5 800] ------- [245:255 -1:255 32 0] 
D 64.341259093 _148_ IFQ  --- 8683 message 3308 [0 ffffffff 94 800] ------- [148:255 -1:255 32 0] 
D 64.341448501 _204_ IFQ  --- 8349 message 3296 [0 ffffffff cc 800] ------- [204:255 -1:255 32 0] 
D 64.341937497 _88_ IFQ  --- 8689 message 3296 [0 ffffffff 58 800] ------- [88:255 -1:255 32 0] 
D 64.342352238 _279_ IFQ  --- 8655 message 3320 [0 ffffffff 117 800] ------- [279:255 -1:255 32 0] 
D 64.343158992 _53_ IFQ  --- 8926 message 3260 [0 ffffffff 35 800] ------- [53:255 -1:255 32 0] 
D 64.344993645 _291_ IFQ  --- 8722 message 3296 [0 ffffffff 123 800] ------- [291:255 -1:255 32 0] 
D 64.480756877 _89_ IFQ  --- 8979 message 3296 [0 ffffffff 59 800] ------- [89:255 -1:255 32 0] 
D 64.483180268 _279_ IFQ  --- 8687 message 3320 [0 ffffffff 117 800] ------- [279:255 -1:255 32 0] 
D 64.484554727 _201_ IFQ  --- 8702 message 3308 [0 ffffffff c9 800] ------- [201:255 -1:255 32 0] 
D 64.485997567 _223_ IFQ  --- 8780 message 3296 [0 ffffffff df 800] ------- [223:255 -1:255 32 0] 
D 64.486817625 _291_ IFQ  --- 8838 message 3284 [0 ffffffff 123 800] ------- [291:255 -1:255 32 0] 
D 64.487049679 _291_ IFQ  --- 8864 message 3284 [0 ffffffff 123 800] ------- [291:255 -1:255 32 0] 
D 64.487394529 _88_ IFQ  --- 8750 message 3296 [0 ffffffff 58 800] ------- [88:255 -1:255 32 0] 
D 64.488050481 _223_ IFQ  --- 8836 message 3284 [0 ffffffff df 800] ------- [223:255 -1:255 32 0] 
D 64.488760125 _204_ IFQ  --- 8373 message 3296 [0 ffffffff cc 800] ------- [204:255 -1:255 32 0] 
D 64.488914459 _53_ IFQ  --- 8962 message 3260 [0 ffffffff 35 800] ------- [53:255 -1:255 32 0] 
D 64.489097025 _245_ IFQ  --- 8924 message 3272 [0 ffffffff f5 800] ------- [245:255 -1:255 32 0] 
D 64.493176818 _152_ IFQ  --- 8768 message 3332 [0 ffffffff 98 800] ------- [152:255 -1:255 32 0] 
D 64.580533753 _245_ IFQ  --- 8963 message 3272 [0 ffffffff f5 800] ------- [245:255 -1:255 32 0] 