n -t * -s 0  -x 62.128329999999998 -y 54.236890000000002 -Z 0 -z 1  -v circle -c black
n -t * -s 1  -x 53.820050000000002 -y 99.305409999999995 -Z 0 -z 1  -v circle -c black
n -t * -s 2  -x 77.851699999999994 -y 73.331739999999996 -Z 0 -z 1  -v circle -c black
n -t * -s 3  -x 34.5563 -y 18.453389999999999 -Z 0 -z 1  -v circle -c black
n -t * -s 4  -x 41.668900000000001 -y 91.248999999999995 -Z 0 -z 1  -v circle -c black
n -t * -s 5  -x 25.977530000000002 -y 40.845460000000003 -Z 0 -z 1  -v circle -c black
n -t * -s 6  -x 54.031149999999997 -y 5.1129920000000002 -Z 0 -z 1  -v circle -c black
n -t * -s 7  -x 30.66206 -y 50.597149999999999 -Z 0 -z 1  -v circle -c black
n -t * -s 8  -x 71.293379999999999 -y 89.628780000000006 -Z 0 -z 1  -v circle -c black
n -t * -s 9  -x 65.532929999999993 -y 20.33352 -Z 0 -z 1  -v circle -c black
n -t * -s 10  -x 90.354410000000001 -y 17.804600000000001 -Z 0 -z 2  -v circle -c black
n -t * -s 11  -x 8.3937290000000004 -y 8.1681880000000007 -Z 0 -z 2  -v circle -c black
n -t * -s 12  -x 8.3478110000000001 -y 87.034800000000004 -Z 0 -z 2  -v circle -c black
n -t * -s 13  -x 23.210740000000001 -y 16.490110000000001 -Z 0 -z 2  -v circle -c black
n -t * -s 14  -x 88.512429999999995 -y 95.181129999999996 -Z 0 -z 2  -v circle -c black
n -t * -s 15  -x 11.1828 -y 41.979349999999997 -Z 0 -z 2  -v circle -c black
n -t * -s 16  -x 36.518030000000003 -y 38.757170000000002 -Z 0 -z 2  -v circle -c black
n -t * -s 17  -x 32.870080000000002 -y 20.373640000000002 -Z 0 -z 2  -v circle -c black
n -t * -s 18  -x 64.051580000000001 -y 62.358460000000001 -Z 0 -z 2  -v circle -c black
n -t * -s 19  -x 14.54636 -y 79.756450000000001 -Z 0 -z 2  -v circle -c black
V -t * -v 1.0a5 -a 0
W -t * -x 100 -y 100
A -t * -n 1 -p 0 -o 0x7fffffff -c 30 -a 1
A -t * -h 1 -m 1073741823 -s 0
n -t 0 -s 0 -S COLOR -c blue -o black -i blue -I black
n -t 0 -s 1 -S COLOR -c blue -o black -i blue -I black
n -t 0 -s 2 -S COLOR -c blue -o black -i blue -I black
n -t 0 -s 3 -S COLOR -c blue -o black -i blue -I black
n -t 0 -s 4 -S COLOR -c blue -o black -i blue -I black
n -t 0 -s 5 -S COLOR -c blue -o black -i blue -I black
n -t 0 -s 6 -S COLOR -c blue -o black -i blue -I black
n -t 0 -s 7 -S COLOR -c blue -o black -i blue -I black
n -t 0 -s 8 -S COLOR -c blue -o black -i blue -I black
n -t 0 -s 9 -S COLOR -c blue -o black -i blue -I black
n -t 0 -s 10 -S COLOR -c red -o black -i red -I black
n -t 0 -s 11 -S COLOR -c red -o black -i red -I black
n -t 0 -s 12 -S COLOR -c red -o black -i red -I black
n -t 0 -s 13 -S COLOR -c red -o black -i red -I black
n -t 0 -s 14 -S COLOR -c red -o black -i red -I black
n -t 0 -s 15 -S COLOR -c red -o black -i red -I black
n -t 0 -s 16 -S COLOR -c red -o black -i red -I black
n -t 0 -s 17 -S COLOR -c red -o black -i red -I black
n -t 0 -s 18 -S COLOR -c red -o black -i red -I black
n -t 0 -s 19 -S COLOR -c red -o black -i red -I black
n -t 0.000000 -s 10 -x 90.354410 -y 17.804600 -U -0.610173 -V 0.586032 -T 139.667749
n -t 0.000000 -s 11 -x 8.393729 -y 8.168188 -U 1.354035 -V 1.404959 -T 37.922409
n -t 0.000000 -s 12 -x 8.347811 -y 87.034800 -U 1.759339 -V -2.256131 -T 30.589902
n -t 0.000000 -s 13 -x 23.210740 -y 16.490110 -U 2.137915 -V 1.661345 -T 31.110435
n -t 0.000000 -s 14 -x 88.512430 -y 95.181130 -U -0.355397 -V -1.808443 -T 48.819551
n -t 0.000000 -s 15 -x 11.182800 -y 41.979350 -U 1.957656 -V -0.285953 -T 36.716541
n -t 0.000000 -s 16 -x 36.518030 -y 38.757170 -U -0.847242 -V 1.421621 -T 41.948579
n -t 0.000000 -s 17 -x 32.870080 -y 20.373640 -U -0.438529 -V 1.561118 -T 41.173019
n -t 0.000000 -s 18 -x 64.051580 -y 62.358460 -U -0.605070 -V 0.522471 -T 59.649971
n -t 0.000000 -s 19 -x 14.546360 -y 79.756450 -U 2.917384 -V 0.007907 -T 6.262730
n -t 3.000000 -s 0 -x 62.128330 -y 54.236890 -U 0.011150 -V 0.999938 -T 8.189585
n -t 3.000000 -s 3 -x 34.556300 -y 18.453390 -U -0.852753 -V 0.522315 -T 4.283403
n -t 3.000000 -s 5 -x 25.977530 -y 40.845460 -U 0.964914 -V 0.262566 -T 6.789624
n -t 3.000000 -s 7 -x 30.662060 -y 50.597150 -U 0.400832 -V -0.916152 -T 6.768409
n -t 4.000000 -s 0 -x 62.139480 -y 55.236828 -U -0.055084 -V 0.998482 -T 7.725523
n -t 4.000000 -s 3 -x 33.703547 -y 18.975705 -U -0.422870 -V 0.906191 -T 3.090411
n -t 4.000000 -s 5 -x 26.942444 -y 41.108026 -U 0.880211 -V 0.474582 -T 5.528561
n -t 4.000000 -s 7 -x 31.062892 -y 49.680998 -U 0.366982 -V -0.930228 -T 4.130170
n -t 5.000000 -s 0 -x 62.084396 -y 56.235310 -U -0.120255 -V 0.992743 -T 7.299361
n -t 5.000000 -s 3 -x 33.280678 -y 19.881895 -U 0.125083 -V 0.992146 -T 3.453848
n -t 5.000000 -s 5 -x 27.822655 -y 41.582608 -U 0.721236 -V 0.692689 -T 4.682670
n -t 5.000000 -s 7 -x 31.429874 -y 48.750770 -U 0.283167 -V -0.959071 -T 1.508635
n -t 6.000000 -s 0 -x 61.964141 -y 57.228053 -U -0.183513 -V 0.983017 -T 6.908024
n -t 6.000000 -s 3 -x 33.405760 -y 20.874042 -U 0.426412 -V 0.904529 -T 4.673536
n -t 6.000000 -s 5 -x 28.543891 -y 42.275298 -U 0.499642 -V 0.866232 -T 4.285518
n -t 7.000000 -s 0 -x 61.780628 -y 58.211070 -U -0.244099 -V 0.969750 -T 6.548139
n -t 7.000000 -s 3 -x 33.832173 -y 21.778570 -U 0.565165 -V 0.824978 -T 6.186213
n -t 7.000000 -s 5 -x 29.043533 -y 43.141530 -U 0.267229 -V 0.963633 -T 4.277085
n -t 7.000000 -s 7 -x 31.857070 -y 47.303883 -U -0.670585 -V 0.741832 -T 0.393470
n -t 8.000000 -s 0 -x 61.536529 -y 59.180820 -U -0.301381 -V 0.953504 -T 6.216180
n -t 8.000000 -s 3 -x 34.397337 -y 22.603549 -U 0.636091 -V 0.771614 -T 7.801701
n -t 8.000000 -s 5 -x 29.310762 -y 44.105163 -U 0.071079 -V 0.997471 -T 4.540256
n -t 8.000000 -s 7 -x 31.593215 -y 47.595772 -U -0.590241 -V 0.807227 -T 1.639599
n -t 9.000000 -s 19 -x 32.817150 -y 79.805970 -U 0.712014 -V -0.138904 -T 85.056012
n -t 9.000000 -s 0 -x 61.235148 -y 60.134324 -U -0.354885 -V 0.934910 -T 5.908600
n -t 9.000000 -s 2 -x 77.851700 -y 73.331740 -U 0.801195 -V 0.598403 -T 7.813783
n -t 9.000000 -s 3 -x 35.033428 -y 23.375163 -U 0.676901 -V 0.736074 -T 9.459576
n -t 9.000000 -s 4 -x 41.668900 -y 91.249000 -U -0.611855 -V -0.790970 -T 12.967080
n -t 9.000000 -s 5 -x 29.381841 -y 45.102633 -U -0.075605 -V 0.997138 -T 4.967641
n -t 9.000000 -s 7 -x 31.002974 -y 48.402999 -U -0.556698 -V 0.830715 -T 2.290426
n -t 10.000000 -s 0 -x 60.880263 -y 61.069234 -U -0.404297 -V 0.914628 -T 5.621952
n -t 10.000000 -s 2 -x 78.652895 -y 73.930143 -U 0.893645 -V 0.448774 -T 5.556004
n -t 10.000000 -s 3 -x 35.710329 -y 24.111237 -U 0.702631 -V 0.711554 -T 11.137588
n -t 10.000000 -s 4 -x 41.057045 -y 90.458030 -U -0.572146 -V -0.820152 -T 11.657276
n -t 10.000000 -s 5 -x 29.306235 -y 46.099771 -U -0.180392 -V 0.983595 -T 5.488257
n -t 10.000000 -s 7 -x 30.446276 -y 49.233714 -U -0.540215 -V 0.841527 -T 2.943909
n -t 11.000000 -s 0 -x 60.475965 -y 61.983862 -U -0.449462 -V 0.893300 -T 5.352995
n -t 11.000000 -s 2 -x 79.546540 -y 74.378918 -U 0.984212 -V 0.176995 -T 3.637635
n -t 11.000000 -s 3 -x 36.412961 -y 24.822791 -U -0.995846 -V -0.091054 -T 11.679601
n -t 11.000000 -s 4 -x 40.484899 -y 89.637878 -U -0.525461 -V -0.850817 -T 10.382358
n -t 11.000000 -s 5 -x 29.125844 -y 47.083366 -U -0.112476 -V -0.993654 -T 8.098330
n -t 11.000000 -s 7 -x 29.906062 -y 50.075241 -U -0.531104 -V 0.847306 -T 3.598232
n -t 12.000000 -s 0 -x 60.026504 -y 62.877161 -U -0.490360 -V 0.871520 -T 5.098758
n -t 12.000000 -s 2 -x 80.530752 -y 74.555913 -U 0.960554 -V -0.278095 -T 2.369552
n -t 12.000000 -s 3 -x 35.417115 -y 24.731736 -U -0.999623 -V 0.027456 -T 9.279035
n -t 12.000000 -s 4 -x 39.959438 -y 88.787060 -U -0.470156 -V -0.882584 -T 9.148061
n -t 12.000000 -s 5 -x 29.013368 -y 46.089712 -U -0.197345 -V -0.980334 -T 5.622725
n -t 12.000000 -s 7 -x 29.374957 -y 50.922548 -U -0.525621 -V 0.850719 -T 4.252874
n -t 13.000000 -s 0 -x 59.536143 -y 63.748681 -U -0.527087 -V 0.849811 -T 4.856589
n -t 13.000000 -s 2 -x 81.491305 -y 74.277818 -U 0.677519 -V -0.735505 -T 2.043755
n -t 13.000000 -s 3 -x 34.417492 -y 24.759193 -U -0.980822 -V 0.194906 -T 7.085976
n -t 13.000000 -s 4 -x 39.489282 -y 87.904477 -U -0.404178 -V -0.914680 -T 7.961365
n -t 13.000000 -s 5 -x 28.816022 -y 45.109378 -U -0.347673 -V -0.937616 -T 3.236692
n -t 13.000000 -s 7 -x 28.849337 -y 51.773267 -U -0.522102 -V 0.852883 -T 4.907657
n -t 14.000000 -s 0 -x 59.009056 -y 64.598492 -U -0.559824 -V 0.828611 -T 4.624173
n -t 14.000000 -s 2 -x 82.168824 -y 73.542313 -U 0.348503 -V -0.937308 -T 2.425487
n -t 14.000000 -s 3 -x 33.436670 -y 24.954099 -U -0.903712 -V 0.428141 -T 5.234952
n -t 14.000000 -s 4 -x 39.085104 -y 86.989797 -U -0.325048 -V -0.945698 -T 6.830727
n -t 14.000000 -s 5 -x 28.468350 -y 44.171762 -U -0.666727 -V -0.745302 -T 1.106276
n -t 14.000000 -s 7 -x 28.327234 -y 52.626150 -U 0.854885 -V 0.518817 -T 3.940878
n -t 15.000000 -s 0 -x 58.449232 -y 65.427103 -U -0.588811 -V 0.808271 -T 4.399531
n -t 15.000000 -s 2 -x 82.517328 -y 72.605005 -U 0.144419 -V -0.989517 -T 3.098735
n -t 15.000000 -s 3 -x 32.532958 -y 25.382240 -U -0.704193 -V 0.710008 -T 3.937016
n -t 15.000000 -s 4 -x 38.760057 -y 86.044099 -U -0.229942 -V -0.973204 -T 5.766261
n -t 15.000000 -s 5 -x 27.801623 -y 43.426460 -U -0.972141 -V 0.234398 -T 0.052735
n -t 15.000000 -s 7 -x 29.182120 -y 53.144967 -U 0.999963 -V 0.008616 -T 4.055988
n -t 16.000000 -s 0 -x 57.860421 -y 66.235374 -U -0.614323 -V 0.789055 -T 4.180998
n -t 16.000000 -s 2 -x 82.661747 -y 71.615489 -U 0.030590 -V -0.999532 -T 3.871965
n -t 16.000000 -s 3 -x 31.828764 -y 26.092248 -U -0.362266 -V 0.932075 -T 3.387244
n -t 16.000000 -s 4 -x 38.530114 -y 85.070895 -U -0.116067 -V -0.993241 -T 4.779698
n -t 16.000000 -s 5 -x 27.750357 -y 43.438820 -U -0.704135 -V 0.710066 -T 1.193715
n -t 16.000000 -s 7 -x 30.182083 -y 53.153583 -U 0.943552 -V -0.331225 -T 5.192963
n -t 17.000000 -s 0 -x 57.246098 -y 67.024429 -U -0.636653 -V 0.771150 -T 3.967204
n -t 17.000000 -s 2 -x 82.692337 -y 70.615956 -U -0.035854 -V -0.999357 -T 4.682338
n -t 17.000000 -s 3 -x 31.466498 -y 27.024323 -U -0.010775 -V 0.999942 -T 3.528453
n -t 17.000000 -s 4 -x 38.414048 -y 84.077653 -U 0.018429 -V -0.999830 -T 3.883833
n -t 17.000000 -s 5 -x 27.046222 -y 44.148886 -U -0.508267 -V 0.861200 -T 1.709207
n -t 17.000000 -s 7 -x 31.125635 -y 52.822358 -U 0.864724 -V -0.502247 -T 6.746498
n -t 18.000000 -s 0 -x 56.609445 -y 67.795579 -U -0.656098 -V 0.754676 -T 3.757035
n -t 18.000000 -s 2 -x 82.656483 -y 69.616599 -U -0.077222 -V -0.997014 -T 5.508377
n -t 18.000000 -s 3 -x 31.455723 -y 28.024265 -U 0.234500 -V 0.972116 -T 4.089021
n -t 18.000000 -s 4 -x 38.432476 -y 83.077823 -U 0.172687 -V -0.984977 -T 3.090965
n -t 18.000000 -s 5 -x 26.537955 -y 45.010086 -U -0.410964 -V 0.911652 -T 2.299353
n -t 18.000000 -s 7 -x 31.990359 -y 52.320111 -U -0.876809 -V -0.480839 -T 6.499231
n -t 19.000000 -s 0 -x 55.953346 -y 68.550255 -U -0.672945 -V 0.739692 -T 3.549600
n -t 19.000000 -s 2 -x 82.579261 -y 68.619586 -U -0.104488 -V -0.994526 -T 6.341803
n -t 19.000000 -s 3 -x 31.690223 -y 28.996381 -U 0.382734 -V 0.923859 -T 4.849478
n -t 19.000000 -s 4 -x 38.605163 -y 82.092846 -U 0.340711 -V -0.940168 -T 2.409855
n -t 19.000000 -s 5 -x 26.126991 -y 45.921737 -U -0.360357 -V 0.932814 -T 2.909402
n -t 19.000000 -s 7 -x 31.113550 -y 51.839272 -U -0.964351 -V -0.264627 -T 5.318596
n -t 20.000000 -s 0 -x 55.280401 -y 69.289947 -U -0.687468 -V 0.726215 -T 3.344198
n -t 20.000000 -s 2 -x 82.474773 -y 67.625059 -U -0.123318 -V -0.992367 -T 7.179041
n -t 20.000000 -s 3 -x 32.072958 -y 29.920239 -U 0.472353 -V 0.881409 -T 5.701102
n -t 20.000000 -s 4 -x 38.945874 -y 81.152678 -U 0.509787 -V -0.860300 -T 1.841457
n -t 20.000000 -s 5 -x 25.766634 -y 46.854552 -U -0.331701 -V 0.943385 -T 3.526007
n -t 20.000000 -s 7 -x 30.149199 -y 51.574646 -U -0.999994 -V 0.003531 -T 4.549735
n -t 21.000000 -s 0 -x 54.592934 -y 70.016162 -U -0.699921 -V 0.714220 -T 3.140284
n -t 21.000000 -s 2 -x 82.351454 -y 66.632692 -U -0.136826 -V -0.990595 -T 8.018391
n -t 21.000000 -s 3 -x 32.545311 -y 30.801649 -U 0.529019 -V 0.848610 -T 6.596382
n -t 21.000000 -s 4 -x 39.455661 -y 80.292378 -U 0.662740 -V -0.748850 -T 1.375425
n -t 21.000000 -s 5 -x 25.434933 -y 47.797936 -U -0.314244 -V 0.949342 -T 4.145163
n -t 21.000000 -s 7 -x 29.149205 -y 51.578177 -U -0.961019 -V 0.276483 -T 4.210848
n -t 22.000000 -s 0 -x 53.893013 -y 70.730383 -U -0.710540 -V 0.703657 -T 2.937442
n -t 22.000000 -s 2 -x 82.214628 -y 65.642097 -U -0.146823 -V -0.989163 -T 8.858982
n -t 22.000000 -s 3 -x 33.074330 -y 31.650258 -U 0.566686 -V 0.823934 -T 7.514093
n -t 22.000000 -s 4 -x 40.118401 -y 79.543528 -U 0.784893 -V -0.619631 -T 0.990701
n -t 22.000000 -s 5 -x 25.120688 -y 48.747278 -U -0.302971 -V 0.953000 -T 4.765444
n -t 22.000000 -s 7 -x 28.188186 -y 51.854660 -U -0.866281 -V 0.499557 -T 4.232253
n -t 23.000000 -s 0 -x 53.182473 -y 71.434039 -U -0.719540 -V 0.694451 -T 2.735360
n -t 23.000000 -s 2 -x 82.067805 -y 64.652934 -U -0.154416 -V -0.988006 -T 9.700338
n -t 23.000000 -s 3 -x 33.641016 -y 32.474192 -U 0.592863 -V 0.805303 -T 8.444131
n -t 23.000000 -s 4 -x 40.895995 -y 78.929659 -U 0.870473 -V -0.492216 -T 0.670491
n -t 23.000000 -s 5 -x 24.817718 -y 49.700278 -U -0.295342 -V 0.955392 -T 5.386271
n -t 23.000000 -s 7 -x 27.321905 -y 52.354217 -U -0.756330 -V 0.654190 -T 4.500012
n -t 24.000000 -s 0 -x 52.462933 -y 72.128490 -U -0.727115 -V 0.686515 -T 2.533806
n -t 24.000000 -s 2 -x 81.913389 -y 63.664928 -U -0.711431 -V -0.702756 -T 8.891275
n -t 24.000000 -s 3 -x 34.233879 -y 33.279496 -U 0.611751 -V 0.791050 -T 9.381352
n -t 24.000000 -s 4 -x 41.479640 -y 78.599632 -U 0.917077 -V -0.398710 -T 0.700168
n -t 24.000000 -s 5 -x 24.522376 -y 50.655670 -U -0.289980 -V 0.957033 -T 6.007385
n -t 24.000000 -s 7 -x 26.565575 -y 53.008407 -U -0.657809 -V 0.753185 -T 4.915525
n -t 25.000000 -s 0 -x 51.735817 -y 72.815006 -U -0.733442 -V 0.679752 -T 2.332610
n -t 25.000000 -s 2 -x 81.201958 -y 62.962173 -U -0.677055 -V -0.735933 -T 5.210434
n -t 25.000000 -s 3 -x 34.845630 -y 34.070546 -U 0.625812 -V 0.779974 -T 10.322972
n -t 25.000000 -s 4 -x 42.121748 -y 78.320468 -U 0.942968 -V -0.332884 -T 0.713893
n -t 25.000000 -s 5 -x 24.232396 -y 51.612703 -U -0.286091 -V 0.958202 -T 6.628658
n -t 25.000000 -s 7 -x 25.907766 -y 53.761592 -U -0.578586 -V 0.815622 -T 5.414983
n -t 26.000000 -s 0 -x 51.002376 -y 73.494758 -U -0.738679 -V 0.674058 -T 2.131654
n -t 26.000000 -s 2 -x 80.524903 -y 62.226240 -U -0.562395 -V -0.826869 -T 1.573218
n -t 26.000000 -s 3 -x 35.471442 -y 34.850520 -U 0.636558 -V 0.771229 -T 11.267399
n -t 26.000000 -s 4 -x 42.794926 -y 78.082825 -U 0.957790 -V -0.287468 -T 0.720179
n -t 26.000000 -s 5 -x 23.946305 -y 52.570905 -U -0.283197 -V 0.959062 -T 7.250024
n -t 26.000000 -s 7 -x 25.329180 -y 54.577213 -U -0.517404 -V 0.855741 -T 5.961962
n -t 27.000000 -s 0 -x 50.263697 -y 74.168815 -U -0.742969 -V 0.669326 -T 1.930852
n -t 27.000000 -s 3 -x 36.108000 -y 35.621749 -U 0.644952 -V 0.764223 -T 12.213685
n -t 27.000000 -s 4 -x 43.484706 -y 77.875796 -U 0.966557 -V -0.256453 -T 0.723045
n -t 27.000000 -s 5 -x 23.663108 -y 53.529967 -U -0.280993 -V 0.959710 -T 7.871448
n -t 27.000000 -s 7 -x 24.811776 -y 55.432954 -U -0.470605 -V 0.882344 -T 6.536416
n -t 28.000000 -s 0 -x 49.520728 -y 74.838141 -U -0.746442 -V 0.665450 -T 1.730147
n -t 28.000000 -s 2 -x 79.640134 -y 60.925395 -U 0.854950 -V 0.518710 -T 2.514549
n -t 28.000000 -s 3 -x 36.752951 -y 36.385972 -U 0.651633 -V 0.758535 -T 13.161238
n -t 28.000000 -s 4 -x 44.183571 -y 77.690369 -U 0.971902 -V -0.235387 -T 0.724350
n -t 28.000000 -s 5 -x 23.382115 -y 54.489677 -U -0.279283 -V 0.960209 -T 8.492908
n -t 28.000000 -s 7 -x 24.341171 -y 56.315298 -U -0.434658 -V 0.900596 -T 7.127245
n -t 29.000000 -s 0 -x 48.774286 -y 75.503591 -U -0.749214 -V 0.662328 -T 1.529502
n -t 29.000000 -s 2 -x 80.495084 -y 61.444105 -U 0.825403 -V 0.564544 -T 4.212611
n -t 29.000000 -s 4 -x 44.887568 -y 77.519866 -U 0.975246 -V -0.221123 -T 0.724943
n -t 29.000000 -s 5 -x 23.102833 -y 55.449886 -U -0.277933 -V 0.960600 -T 9.114392
n -t 29.000000 -s 7 -x 23.906513 -y 57.215894 -U -0.406774 -V 0.913529 -T 7.728150
n -t 29.000000 -s 9 -x 65.532930 -y 20.333520 -U -0.979320 -V 0.202319 -T 4.794449
n -t 30.000000 -s 0 -x 48.025071 -y 76.165919 -U -0.751391 -V 0.659858 -T 1.328891
n -t 30.000000 -s 2 -x 81.320487 -y 62.008650 -U 0.812692 -V 0.582694 -T 5.916976
n -t 30.000000 -s 4 -x 45.594565 -y 77.359565 -U 0.977382 -V -0.211480 -T 0.725212
n -t 30.000000 -s 5 -x 22.824900 -y 56.410486 -U -0.276853 -V 0.960912 -T 9.735892
n -t 30.000000 -s 7 -x 23.499739 -y 58.129423 -U -0.384886 -V 0.922964 -T 8.335453
n -t 30.000000 -s 9 -x 64.553610 -y 20.535839 -U -0.945057 -V -0.326906 -T 2.124776
n -t 31.000000 -s 0 -x 47.273681 -y 76.825777 -U -0.753065 -V 0.657946 -T 1.128301
n -t 31.000000 -s 2 -x 82.133179 -y 62.591343 -U 0.805970 -V 0.591957 -T 7.623095
n -t 31.000000 -s 4 -x 46.303375 -y 77.206197 -U 0.978768 -V -0.204969 -T 0.725335
n -t 31.000000 -s 5 -x 22.548047 -y 57.371399 -U -0.275976 -V 0.961164 -T 10.357403
n -t 31.000000 -s 7 -x 23.114853 -y 59.052387 -U -0.367492 -V 0.930026 -T 8.946934
n -t 31.000000 -s 9 -x 63.608554 -y 20.208933 -U -0.550315 -V -0.834957 -T 1.121634
n -t 32.000000 -s 0 -x 46.520615 -y 77.483722 -U -0.754324 -V 0.656502 -T 0.927720
n -t 32.000000 -s 2 -x 82.939148 -y 63.183300 -U 0.805399 -V 0.592732 -T 6.921997
n -t 32.000000 -s 4 -x 47.013310 -y 77.057525 -U 0.979678 -V -0.200575 -T 0.725391
n -t 32.000000 -s 5 -x 22.272070 -y 58.332563 -U -0.275257 -V 0.961371 -T 10.978922
n -t 32.000000 -s 7 -x 22.747361 -y 59.982413 -U -0.353506 -V 0.935432 -T 9.561215
n -t 32.000000 -s 9 -x 63.058239 -y 19.373975 -U -0.550315 -V -0.834957 -T 0.121634
n -t 33.000000 -s 0 -x 45.820814 -y 78.092773 -U -0.755213 -V 0.655479 -T 0.799425
n -t 33.000000 -s 2 -x 83.744548 -y 63.776032 -U 0.805399 -V 0.592732 -T 5.921997
n -t 33.000000 -s 4 -x 47.723960 -y 76.912030 -U 0.980280 -V -0.197611 -T 0.725416
n -t 33.000000 -s 5 -x 21.996813 -y 59.293934 -U -0.274661 -V 0.961541 -T 11.600446
n -t 33.000000 -s 7 -x 22.393854 -y 60.917846 -U -0.342133 -V 0.939652 -T 10.177417
n -t 34.000000 -s 0 -x 45.217078 -y 78.616779 -U -0.755793 -V 0.654811 -T 0.799427
n -t 34.000000 -s 2 -x 84.549947 -y 64.368765 -U 0.805399 -V 0.592732 -T 4.921997
n -t 34.000000 -s 4 -x 48.435071 -y 76.768680 -U 0.980681 -V -0.195612 -T 0.725427
n -t 34.000000 -s 5 -x 21.722152 -y 60.255475 -U -0.274163 -V 0.961683 -T 12.221974
n -t 34.000000 -s 7 -x 22.051722 -y 61.857497 -U -0.332789 -V 0.943001 -T 10.794966
n -t 35.000000 -s 0 -x 44.612877 -y 79.140252 -U -0.756171 -V 0.654375 -T 0.799428
n -t 35.000000 -s 2 -x 85.355347 -y 64.961497 -U 0.805399 -V 0.592732 -T 3.921997
n -t 35.000000 -s 4 -x 49.146484 -y 76.626777 -U 0.980949 -V -0.194265 -T 0.725433
n -t 35.000000 -s 5 -x 21.447989 -y 61.217158 -U -0.273742 -V 0.961803 -T 12.843505
n -t 35.000000 -s 7 -x 21.718933 -y 62.800499 -U -0.325038 -V 0.945701 -T 11.413475
n -t 36.000000 -s 0 -x 44.008373 -y 79.663377 -U -0.756417 -V 0.654090 -T 0.799428
n -t 36.000000 -s 2 -x 86.160746 -y 65.554229 -U 0.805399 -V 0.592732 -T 2.921997
n -t 36.000000 -s 4 -x 49.858096 -y 76.485851 -U 0.981129 -V -0.193356 -T 0.725435
n -t 36.000000 -s 5 -x 21.174247 -y 62.178961 -U -0.273384 -V 0.961905 -T 13.465039
n -t 36.000000 -s 7 -x 21.393895 -y 63.746200 -U -0.318552 -V 0.947906 -T 12.032683
n -t 37.000000 -s 0 -x 43.403672 -y 80.186275 -U -0.756577 -V 0.653904 -T 0.799428
n -t 37.000000 -s 2 -x 86.966146 -y 66.146962 -U 0.805399 -V 0.592732 -T 1.921997
n -t 37.000000 -s 4 -x 50.569841 -y 76.345584 -U 0.981249 -V -0.192744 -T 0.725436
n -t 37.000000 -s 7 -x 21.075344 -y 64.694105 -U -0.313080 -V 0.949727 -T 12.652405
n -t 38.000000 -s 0 -x 42.798842 -y 80.709025 -U -0.756682 -V 0.653783 -T 0.799428
n -t 38.000000 -s 2 -x 87.771545 -y 66.739694 -U 0.805399 -V 0.592732 -T 0.921997
n -t 38.000000 -s 4 -x 51.281674 -y 76.205760 -U 0.981330 -V -0.192331 -T 0.725436
n -t 38.000000 -s 7 -x 20.762264 -y 65.643832 -U -0.308430 -V 0.951247 -T 13.272512
n -t 39.000000 -s 0 -x 42.193929 -y 81.231677 -U -0.756751 -V 0.653704 -T 0.799428
n -t 39.000000 -s 2 -x 88.514121 -y 67.286191 -U 0.000000 -V 0.000000 -T 0.000000
n -t 39.000000 -s 4 -x 51.993567 -y 76.066237 -U 0.981385 -V -0.192053 -T 0.725437
n -t 40.000000 -s 0 -x 41.588961 -y 81.754267 -U -0.756795 -V 0.653652 -T 0.799428
n -t 40.000000 -s 2 -x 88.514121 -y 67.286191 -U 0.000000 -V 0.000000 -T 0.000000
n -t 40.000000 -s 4 -x 52.705500 -y 75.926915 -U 0.981421 -V -0.191865 -T 0.725437
n -t 41.000000 -s 12 -x 62.165830 -y 18.019980 -U 1.065677 -V -2.060682 -T 0.255265
n -t 41.000000 -s 0 -x 40.983958 -y 82.276815 -U -0.756824 -V 0.653619 -T 0.799428
n -t 41.000000 -s 2 -x 88.514121 -y 67.286191 -U 0.000000 -V 0.000000 -T 0.000000
n -t 41.000000 -s 4 -x 53.417459 -y 75.787729 -U 0.981446 -V -0.191738 -T 0.725437
n -t 42.000000 -s 13 -x 89.722220 -y 68.175290 -U -0.432488 -V -2.248384 -T 25.121659
n -t 42.000000 -s 0 -x 40.378931 -y 82.799336 -U -0.756843 -V 0.653597 -T 0.799428
n -t 42.000000 -s 2 -x 88.514121 -y 67.286191 -U 0.000000 -V 0.000000 -T 0.000000
n -t 42.000000 -s 4 -x 54.129436 -y 75.648635 -U 0.981463 -V -0.191653 -T 0.725437
n -t 42.000000 -s 9 -x 62.991302 -y 19.272416 -U -0.297137 -V -0.954835 -T 0.362580
n -t 43.000000 -s 12 -x 62.437860 -y 17.493960 -U -0.477478 -V 2.203228 -T 33.457278
n -t 43.000000 -s 0 -x 39.773889 -y 83.321840 -U -0.756855 -V 0.653582 -T 0.799428
n -t 43.000000 -s 2 -x 88.514121 -y 67.286191 -U 0.495598 -V -0.868552 -T 0.065002
n -t 43.000000 -s 4 -x 54.841425 -y 75.509602 -U 0.981474 -V -0.191596 -T 0.725437
n -t 43.000000 -s 9 -x 62.883566 -y 18.926212 -U 0.000000 -V 0.000000 -T 0.000000
n -t 44.000000 -s 0 -x 39.168837 -y 83.844332 -U -0.756864 -V 0.653573 -T 0.799428
n -t 44.000000 -s 2 -x 88.546335 -y 67.229734 -U 0.087216 -V -0.996189 -T 2.064797
n -t 44.000000 -s 4 -x 55.553422 -y 75.370612 -U 0.981481 -V -0.191557 -T 0.725437
n -t 45.000000 -s 0 -x 38.563779 -y 84.366817 -U -0.756869 -V 0.653567 -T 0.799428
n -t 45.000000 -s 2 -x 88.633552 -y 66.233545 -U -0.043427 -V -0.999057 -T 3.307943
n -t 45.000000 -s 4 -x 56.265425 -y 75.231649 -U 0.981487 -V -0.191531 -T 0.725437
n -t 45.000000 -s 9 -x 62.883566 -y 18.926212 -U -0.426055 -V 0.904697 -T 1.787513
n -t 46.000000 -s 0 -x 37.958716 -y 84.889297 -U -0.756872 -V 0.653563 -T 0.799428
n -t 46.000000 -s 2 -x 88.590124 -y 65.234488 -U -0.098296 -V -0.995157 -T 4.582190
n -t 46.000000 -s 4 -x 56.977432 -y 75.092706 -U 0.981490 -V -0.191513 -T 0.725437
n -t 46.000000 -s 7 -x 18.294825 -y 73.253809 -U -0.292085 -V 0.956392 -T 10.415393
n -t 46.000000 -s 9 -x 62.457511 -y 19.830909 -U -0.321775 -V 0.946816 -T 3.012738
n -t 47.000000 -s 0 -x 37.353651 -y 85.411774 -U -0.756874 -V 0.653560 -T 0.799428
n -t 47.000000 -s 2 -x 88.491828 -y 64.239331 -U -0.126548 -V -0.991960 -T 5.865174
n -t 47.000000 -s 4 -x 57.689441 -y 74.953775 -U 0.981492 -V -0.191501 -T 0.725437
n -t 47.000000 -s 7 -x 18.002740 -y 74.210201 -U -0.292085 -V 0.956392 -T 9.415393
n -t 47.000000 -s 9 -x 62.135736 -y 20.777725 -U -0.279219 -V 0.960227 -T 4.258162
n -t 48.000000 -s 0 -x 36.748584 -y 85.934249 -U -0.756876 -V 0.653559 -T 0.799428
n -t 48.000000 -s 2 -x 88.365280 -y 63.247371 -U -0.143097 -V -0.989709 -T 7.151420
n -t 48.000000 -s 4 -x 58.401452 -y 74.814853 -U 0.981494 -V -0.191494 -T 0.725437
n -t 48.000000 -s 5 -x 17.893634 -y 73.721819 -U -0.271209 -V 0.962521 -T 9.853296
n -t 48.000000 -s 7 -x 17.710656 -y 75.166594 -U -0.292085 -V 0.956392 -T 8.415393
n -t 48.000000 -s 9 -x 61.856517 -y 21.737953 -U -0.257682 -V 0.966230 -T 5.508835
n -t 49.000000 -s 15 -x 83.061150 -y 31.480160 -U -2.697511 -V -0.244083 -T 6.699766
n -t 49.000000 -s 0 -x 36.143516 -y 86.456722 -U -0.756877 -V 0.653557 -T 0.799428
n -t 49.000000 -s 2 -x 88.222183 -y 62.257662 -U -0.153674 -V -0.988122 -T 8.439121
n -t 49.000000 -s 4 -x 59.113464 -y 74.675936 -U 0.981495 -V -0.191488 -T 0.725437
n -t 49.000000 -s 5 -x 17.622425 -y 74.684340 -U -0.271209 -V 0.962521 -T 8.853296
n -t 49.000000 -s 7 -x 17.418571 -y 76.122986 -U -0.292085 -V 0.956392 -T 7.415393
n -t 49.000000 -s 9 -x 61.598835 -y 22.704183 -U -0.245219 -V 0.969468 -T 6.761381
n -t 50.000000 -s 11 -x 59.741980 -y 61.447600 -U 2.014617 -V 0.776235 -T 15.999788
n -t 50.000000 -s 0 -x 35.538447 -y 86.979195 -U -0.756877 -V 0.653557 -T 0.799428
n -t 50.000000 -s 2 -x 88.068510 -y 61.269540 -U -0.160872 -V -0.986975 -T 9.727558
n -t 50.000000 -s 4 -x 59.825476 -y 74.537024 -U 0.981496 -V -0.191484 -T 0.725437
n -t 50.000000 -s 5 -x 17.351216 -y 75.646860 -U -0.271209 -V 0.962521 -T 7.853296
n -t 50.000000 -s 7 -x 17.126486 -y 77.079378 -U -0.292085 -V 0.956392 -T 6.415393
n -t 50.000000 -s 9 -x 61.353617 -y 23.673651 -U -0.237327 -V 0.971430 -T 8.014741
n -t 51.000000 -s 0 -x 34.933378 -y 87.501667 -U -0.756878 -V 0.653556 -T 0.799428
n -t 51.000000 -s 2 -x 87.907638 -y 60.282565 -U -0.166007 -V -0.986125 -T 11.016403
n -t 51.000000 -s 4 -x 60.537489 -y 74.398114 -U 0.981496 -V -0.191482 -T 0.725437
n -t 51.000000 -s 5 -x 17.080007 -y 76.609381 -U -0.271209 -V 0.962521 -T 6.853296
n -t 51.000000 -s 7 -x 16.834401 -y 78.035771 -U -0.292085 -V 0.956392 -T 5.415393
n -t 51.000000 -s 9 -x 61.116290 -y 24.645080 -U -0.231997 -V 0.972717 -T 9.268502
n -t 52.000000 -s 0 -x 34.328308 -y 88.024138 -U -0.756878 -V 0.653556 -T 0.799428
n -t 52.000000 -s 2 -x 87.741631 -y 59.296440 -U -0.169809 -V -0.985477 -T 12.305488
n -t 52.000000 -s 4 -x 61.249503 -y 74.259205 -U 0.981496 -V -0.191480 -T 0.725437
n -t 52.000000 -s 5 -x 16.808799 -y 77.571901 -U -0.271209 -V 0.962521 -T 5.853296
n -t 52.000000 -s 7 -x 16.542316 -y 78.992163 -U -0.292085 -V 0.956392 -T 4.415393
n -t 52.000000 -s 9 -x 60.884293 -y 25.617797 -U -0.228217 -V 0.973610 -T 10.522482
n -t 53.000000 -s 0 -x 33.723238 -y 88.546609 -U -0.756878 -V 0.653556 -T 0.799428
n -t 53.000000 -s 3 -x 45.329247 -y 46.369225 -U 0.981202 -V 0.192981 -T 11.429017
n -t 53.000000 -s 4 -x 61.961517 -y 74.120299 -U 0.981497 -V -0.191479 -T 0.725437
n -t 53.000000 -s 5 -x 16.537590 -y 78.534422 -U -0.271209 -V 0.962521 -T 4.853296
n -t 53.000000 -s 7 -x 16.250232 -y 79.948556 -U -0.292085 -V 0.956392 -T 3.415393
n -t 53.000000 -s 9 -x 60.656076 -y 26.591407 -U 0.947681 -V 0.319218 -T 10.756263
n -t 54.000000 -s 0 -x 33.118168 -y 89.069080 -U -0.756878 -V 0.653556 -T 0.799428
n -t 54.000000 -s 3 -x 46.310449 -y 46.562207 -U 0.967748 -V 0.251921 -T 9.964358
n -t 54.000000 -s 4 -x 62.673531 -y 73.981392 -U 0.981497 -V -0.191479 -T 0.725437
n -t 54.000000 -s 5 -x 16.266381 -y 79.496943 -U -0.271209 -V 0.962521 -T 3.853296
n -t 54.000000 -s 7 -x 15.958147 -y 80.904948 -U -0.292085 -V 0.956392 -T 2.415393
n -t 54.000000 -s 9 -x 61.603757 -y 26.910625 -U 0.921908 -V 0.387408 -T 7.144937
n -t 55.000000 -s 0 -x 32.513098 -y 89.591552 -U -0.756879 -V 0.653556 -T 0.799428
n -t 55.000000 -s 3 -x 47.278197 -y 46.814127 -U 0.956350 -V -0.292225 -T 8.360332
n -t 55.000000 -s 4 -x 63.385545 -y 73.842487 -U 0.981497 -V -0.191478 -T 0.725437
n -t 55.000000 -s 5 -x 15.995172 -y 80.459463 -U -0.271209 -V 0.962521 -T 2.853296
n -t 55.000000 -s 7 -x 15.666062 -y 81.861341 -U -0.292085 -V 0.956392 -T 1.415393
n -t 55.000000 -s 9 -x 62.525666 -y 27.298033 -U 0.848120 -V 0.529805 -T 3.629489
n -t 56.000000 -s 16 -x 0.977436 -y 98.392170 -U 1.862944 -V -1.329993 -T 26.662944
n -t 56.000000 -s 17 -x 14.814520 -y 84.649600 -U 1.096721 -V 0.088748 -T 75.994119
n -t 56.000000 -s 0 -x 31.908027 -y 90.114022 -U -0.756879 -V 0.653556 -T 0.799428
n -t 56.000000 -s 3 -x 48.234547 -y 46.521903 -U 0.998837 -V -0.048215 -T 6.505408
n -t 56.000000 -s 4 -x 64.097559 -y 73.703582 -U 0.981497 -V -0.191478 -T 0.725437
n -t 56.000000 -s 5 -x 15.723963 -y 81.421984 -U -0.271209 -V 0.962521 -T 1.853296
n -t 56.000000 -s 7 -x 15.373977 -y 82.817733 -U -0.292085 -V 0.956392 -T 0.415393
n -t 56.000000 -s 9 -x 63.373785 -y 27.827838 -U 0.624945 -V 0.780669 -T 1.083709
n -t 57.000000 -s 0 -x 31.302957 -y 90.636493 -U -0.756879 -V 0.653555 -T 0.799428
n -t 57.000000 -s 3 -x 49.233384 -y 46.473687 -U 0.961420 -V 0.275084 -T 5.281408
n -t 57.000000 -s 4 -x 64.809573 -y 73.564677 -U 0.981497 -V -0.191477 -T 0.725437
n -t 57.000000 -s 5 -x 15.452755 -y 82.384504 -U 0.191189 -V 0.981553 -T 0.898081
n -t 57.000000 -s 7 -x 15.252647 -y 83.215011 -U 0.396837 -V 0.917889 -T 0.159609
n -t 57.000000 -s 9 -x 63.998730 -y 28.608507 -U 0.624945 -V 0.780669 -T 0.083709
n -t 58.000000 -s 15 -x 64.988460 -y 29.844860 -U -0.950894 -V 0.690703 -T 43.784903
n -t 58.000000 -s 0 -x 30.697887 -y 91.158964 -U -0.756879 -V 0.653555 -T 0.799428
n -t 58.000000 -s 3 -x 50.194804 -y 46.748772 -U 0.801290 -V 0.598277 -T 4.840884
n -t 58.000000 -s 4 -x 65.521587 -y 73.425772 -U 0.981497 -V -0.191477 -T 0.725437
n -t 58.000000 -s 5 -x 15.624458 -y 83.266018 -U 0.663260 -V 0.748389 -T 0.585917
n -t 58.000000 -s 7 -x 15.315986 -y 83.361514 -U 0.755865 -V 0.654727 -T 0.738462
n -t 59.000000 -s 0 -x 30.092816 -y 91.681435 -U -0.756879 -V 0.653555 -T 0.799428
n -t 59.000000 -s 3 -x 50.996093 -y 47.347049 -U 0.575811 -V 0.817583 -T 5.103066
n -t 59.000000 -s 4 -x 66.233601 -y 73.286867 -U 0.981497 -V -0.191477 -T 0.725437
n -t 59.000000 -s 5 -x 16.013073 -y 83.704512 -U 0.865355 -V 0.501160 -T 0.917056
n -t 59.000000 -s 7 -x 15.874164 -y 83.845006 -U 0.901493 -V 0.432793 -T 0.974250
n -t 59.000000 -s 9 -x 64.051043 -y 28.673856 -U -0.007239 -V 0.999974 -T 0.361755
n -t 60.000000 -s 0 -x 29.487746 -y 92.203906 -U -0.756879 -V 0.653555 -T 0.519605
n -t 60.000000 -s 3 -x 51.571904 -y 48.164632 -U 0.412142 -V 0.911120 -T 3.770302
n -t 60.000000 -s 4 -x 66.945615 -y 73.147962 -U 0.981497 -V -0.191477 -T 0.725437
n -t 60.000000 -s 5 -x 16.806651 -y 84.164104 -U 0.943572 -V 0.331166 -T 1.037964
n -t 60.000000 -s 7 -x 16.752443 -y 84.266655 -U 0.957476 -V 0.288513 -T 1.057726
n -t 60.000000 -s 9 -x 64.048425 -y 29.035602 -U -0.401989 -V 0.915645 -T 0.892483
n -t 61.000000 -s 0 -x 29.094468 -y 92.543497 -U 0.000000 -V 0.000000 -T 0.000000
n -t 61.000000 -s 3 -x 51.984046 -y 49.075751 -U 0.248762 -V 0.968565 -T 3.122084